+ 1 0 1 tcp 40 ------- 1 0.0 2.0 0 0
- 1 0 1 tcp 40 ------- 1 0.0 2.0 0 0
+ 1 0 1 tcp 1040 ------- 1 0.0 2.0 1 1
- 1.00016 0 1 tcp 1040 ------- 1 0.0 2.0 1 1
r 1.01016 0 1 tcp 40 ------- 1 0.0 2.0 0 0
+ 1.01016 1 2 tcp 40 ------- 1 0.0 2.0 0 0
- 1.01016 1 2 tcp 40 ------- 1 0.0 2.0 0 0
r 1.01432 0 1 tcp 1040 ------- 1 0.0 2.0 1 1
+ 1.01432 1 2 tcp 1040 ------- 1 0.0 2.0 1 1
- 1.01432 1 2 tcp 1040 ------- 1 0.0 2.0 1 1
r 1.02048 1 2 tcp 40 ------- 1 0.0 2.0 0 0
+ 1.02048 2 1 ack 40 ------- 1 2.0 0.0 0 2
- 1.02048 2 1 ack 40 ------- 1 2.0 0.0 0 2
r 1.0308 2 1 ack 40 ------- 1 2.0 0.0 0 2
+ 1.0308 1 0 ack 40 ------- 1 2.0 0.0 0 2
- 1.0308 1 0 ack 40 ------- 1 2.0 0.0 0 2
r 1.03264 1 2 tcp 1040 ------- 1 0.0 2.0 1 1
+ 1.03264 2 1 ack 40 ------- 1 2.0 0.0 1 3
- 1.03264 2 1 ack 40 ------- 1 2.0 0.0 1 3
r 1.04096 1 0 ack 40 ------- 1 2.0 0.0 0 2
+ 1.04096 0 1 tcp 1040 ------- 1 0.0 2.0 2 4
- 1.04096 0 1 tcp 1040 ------- 1 0.0 2.0 2 4
+ 1.04096 0 1 tcp 1040 ------- 1 0.0 2.0 3 5
r 1.04296 2 1 ack 40 ------- 1 2.0 0.0 1 3
+ 1.04296 1 0 ack 40 ------- 1 2.0 0.0 1 3
- 1.04296 1 0 ack 40 ------- 1 2.0 0.0 1 3
- 1.04512 0 1 tcp 1040 ------- 1 0.0 2.0 3 5
r 1.05312 1 0 ack 40 ------- 1 2.0 0.0 1 3
+ 1.05312 0 1 tcp 1040 ------- 1 0.0 2.0 4 6
- 1.05312 0 1 tcp 1040 ------- 1 0.0 2.0 4 6
+ 1.05312 0 1 tcp 1040 ------- 1 0.0 2.0 5 7
r 1.05512 0 1 tcp 1040 ------- 1 0.0 2.0 2 4
+ 1.05512 1 2 tcp 1040 ------- 1 0.0 2.0 2 4
- 1.05512 1 2 tcp 1040 ------- 1 0.0 2.0 2 4
- 1.05728 0 1 tcp 1040 ------- 1 0.0 2.0 5 7
r 1.05928 0 1 tcp 1040 ------- 1 0.0 2.0 3 5
+ 1.05928 1 2 tcp 1040 ------- 1 0.0 2.0 3 5
- 1.06344 1 2 tcp 1040 ------- 1 0.0 2.0 3 5
r 1.06728 0 1 tcp 1040 ------- 1 0.0 2.0 4 6
+ 1.06728 1 2 tcp 1040 ------- 1 0.0 2.0 4 6
r 1.07144 0 1 tcp 1040 ------- 1 0.0 2.0 5 7
+ 1.07144 1 2 tcp 1040 ------- 1 0.0 2.0 5 7
- 1.07176 1 2 tcp 1040 ------- 1 0.0 2.0 4 6
r 1.07344 1 2 tcp 1040 ------- 1 0.0 2.0 2 4
+ 1.07344 2 1 ack 40 ------- 1 2.0 0.0 2 8
- 1.07344 2 1 ack 40 ------- 1 2.0 0.0 2 8
- 1.08008 1 2 tcp 1040 ------- 1 0.0 2.0 5 7
r 1.08176 1 2 tcp 1040 ------- 1 0.0 2.0 3 5
+ 1.08176 2 1 ack 40 ------- 1 2.0 0.0 3 9
- 1.08176 2 1 ack 40 ------- 1 2.0 0.0 3 9
r 1.08376 2 1 ack 40 ------- 1 2.0 0.0 2 8
+ 1.08376 1 0 ack 40 ------- 1 2.0 0.0 2 8
- 1.08376 1 0 ack 40 ------- 1 2.0 0.0 2 8
r 1.09008 1 2 tcp 1040 ------- 1 0.0 2.0 4 6
+ 1.09008 2 1 ack 40 ------- 1 2.0 0.0 4 10
- 1.09008 2 1 ack 40 ------- 1 2.0 0.0 4 10
r 1.09208 2 1 ack 40 ------- 1 2.0 0.0 3 9
+ 1.09208 1 0 ack 40 ------- 1 2.0 0.0 3 9
- 1.09208 1 0 ack 40 ------- 1 2.0 0.0 3 9
r 1.09392 1 0 ack 40 ------- 1 2.0 0.0 2 8
+ 1.09392 0 1 tcp 1040 ------- 1 0.0 2.0 6 11
- 1.09392 0 1 tcp 1040 ------- 1 0.0 2.0 6 11
+ 1.09392 0 1 tcp 1040 ------- 1 0.0 2.0 7 12
- 1.09808 0 1 tcp 1040 ------- 1 0.0 2.0 7 12
r 1.0984 1 2 tcp 1040 ------- 1 0.0 2.0 5 7
+ 1.0984 2 1 ack 40 ------- 1 2.0 0.0 5 13
- 1.0984 2 1 ack 40 ------- 1 2.0 0.0 5 13
r 1.1004 2 1 ack 40 ------- 1 2.0 0.0 4 10
+ 1.1004 1 0 ack 40 ------- 1 2.0 0.0 4 10
- 1.1004 1 0 ack 40 ------- 1 2.0 0.0 4 10
r 1.10224 1 0 ack 40 ------- 1 2.0 0.0 3 9
+ 1.10224 0 1 tcp 1040 ------- 1 0.0 2.0 8 14
- 1.10224 0 1 tcp 1040 ------- 1 0.0 2.0 8 14
+ 1.10224 0 1 tcp 1040 ------- 1 0.0 2.0 9 15
- 1.1064 0 1 tcp 1040 ------- 1 0.0 2.0 9 15
r 1.10808 0 1 tcp 1040 ------- 1 0.0 2.0 6 11
+ 1.10808 1 2 tcp 1040 ------- 1 0.0 2.0 6 11
- 1.10808 1 2 tcp 1040 ------- 1 0.0 2.0 6 11
r 1.10872 2 1 ack 40 ------- 1 2.0 0.0 5 13
+ 1.10872 1 0 ack 40 ------- 1 2.0 0.0 5 13
- 1.10872 1 0 ack 40 ------- 1 2.0 0.0 5 13
r 1.11056 1 0 ack 40 ------- 1 2.0 0.0 4 10
+ 1.11056 0 1 tcp 1040 ------- 1 0.0 2.0 10 16
- 1.11056 0 1 tcp 1040 ------- 1 0.0 2.0 10 16
+ 1.11056 0 1 tcp 1040 ------- 1 0.0 2.0 11 17
r 1.11224 0 1 tcp 1040 ------- 1 0.0 2.0 7 12
+ 1.11224 1 2 tcp 1040 ------- 1 0.0 2.0 7 12
- 1.11472 0 1 tcp 1040 ------- 1 0.0 2.0 11 17
r 1.1164 0 1 tcp 1040 ------- 1 0.0 2.0 8 14
+ 1.1164 1 2 tcp 1040 ------- 1 0.0 2.0 8 14
- 1.1164 1 2 tcp 1040 ------- 1 0.0 2.0 7 12
r 1.11888 1 0 ack 40 ------- 1 2.0 0.0 5 13
+ 1.11888 0 1 tcp 1040 ------- 1 0.0 2.0 12 18
- 1.11888 0 1 tcp 1040 ------- 1 0.0 2.0 12 18
+ 1.11888 0 1 tcp 1040 ------- 1 0.0 2.0 13 19
r 1.12056 0 1 tcp 1040 ------- 1 0.0 2.0 9 15
+ 1.12056 1 2 tcp 1040 ------- 1 0.0 2.0 9 15
- 1.12304 0 1 tcp 1040 ------- 1 0.0 2.0 13 19
r 1.12472 0 1 tcp 1040 ------- 1 0.0 2.0 10 16
+ 1.12472 1 2 tcp 1040 ------- 1 0.0 2.0 10 16
- 1.12472 1 2 tcp 1040 ------- 1 0.0 2.0 8 14
r 1.1264 1 2 tcp 1040 ------- 1 0.0 2.0 6 11
+ 1.1264 2 1 ack 40 ------- 1 2.0 0.0 6 20
- 1.1264 2 1 ack 40 ------- 1 2.0 0.0 6 20
r 1.12888 0 1 tcp 1040 ------- 1 0.0 2.0 11 17
+ 1.12888 1 2 tcp 1040 ------- 1 0.0 2.0 11 17
r 1.13304 0 1 tcp 1040 ------- 1 0.0 2.0 12 18
+ 1.13304 1 2 tcp 1040 ------- 1 0.0 2.0 12 18
- 1.13304 1 2 tcp 1040 ------- 1 0.0 2.0 9 15
r 1.13472 1 2 tcp 1040 ------- 1 0.0 2.0 7 12
+ 1.13472 2 1 ack 40 ------- 1 2.0 0.0 7 21
- 1.13472 2 1 ack 40 ------- 1 2.0 0.0 7 21
r 1.13672 2 1 ack 40 ------- 1 2.0 0.0 6 20
+ 1.13672 1 0 ack 40 ------- 1 2.0 0.0 6 20
- 1.13672 1 0 ack 40 ------- 1 2.0 0.0 6 20
r 1.1372 0 1 tcp 1040 ------- 1 0.0 2.0 13 19
+ 1.1372 1 2 tcp 1040 ------- 1 0.0 2.0 13 19
- 1.14136 1 2 tcp 1040 ------- 1 0.0 2.0 10 16
r 1.14304 1 2 tcp 1040 ------- 1 0.0 2.0 8 14
+ 1.14304 2 1 ack 40 ------- 1 2.0 0.0 8 22
- 1.14304 2 1 ack 40 ------- 1 2.0 0.0 8 22
r 1.14504 2 1 ack 40 ------- 1 2.0 0.0 7 21
+ 1.14504 1 0 ack 40 ------- 1 2.0 0.0 7 21
- 1.14504 1 0 ack 40 ------- 1 2.0 0.0 7 21
r 1.14688 1 0 ack 40 ------- 1 2.0 0.0 6 20
+ 1.14688 0 1 tcp 1040 ------- 1 0.0 2.0 14 23
- 1.14688 0 1 tcp 1040 ------- 1 0.0 2.0 14 23
+ 1.14688 0 1 tcp 1040 ------- 1 0.0 2.0 15 24
- 1.14968 1 2 tcp 1040 ------- 1 0.0 2.0 11 17
- 1.15104 0 1 tcp 1040 ------- 1 0.0 2.0 15 24
r 1.15136 1 2 tcp 1040 ------- 1 0.0 2.0 9 15
+ 1.15136 2 1 ack 40 ------- 1 2.0 0.0 9 25
- 1.15136 2 1 ack 40 ------- 1 2.0 0.0 9 25
r 1.15336 2 1 ack 40 ------- 1 2.0 0.0 8 22
+ 1.15336 1 0 ack 40 ------- 1 2.0 0.0 8 22
- 1.15336 1 0 ack 40 ------- 1 2.0 0.0 8 22
r 1.1552 1 0 ack 40 ------- 1 2.0 0.0 7 21
+ 1.1552 0 1 tcp 1040 ------- 1 0.0 2.0 16 26
- 1.1552 0 1 tcp 1040 ------- 1 0.0 2.0 16 26
+ 1.1552 0 1 tcp 1040 ------- 1 0.0 2.0 17 27
- 1.158 1 2 tcp 1040 ------- 1 0.0 2.0 12 18
- 1.15936 0 1 tcp 1040 ------- 1 0.0 2.0 17 27
r 1.15968 1 2 tcp 1040 ------- 1 0.0 2.0 10 16
+ 1.15968 2 1 ack 40 ------- 1 2.0 0.0 10 28
- 1.15968 2 1 ack 40 ------- 1 2.0 0.0 10 28
r 1.16104 0 1 tcp 1040 ------- 1 0.0 2.0 14 23
+ 1.16104 1 2 tcp 1040 ------- 1 0.0 2.0 14 23
r 1.16168 2 1 ack 40 ------- 1 2.0 0.0 9 25
+ 1.16168 1 0 ack 40 ------- 1 2.0 0.0 9 25
- 1.16168 1 0 ack 40 ------- 1 2.0 0.0 9 25
r 1.16352 1 0 ack 40 ------- 1 2.0 0.0 8 22
+ 1.16352 0 1 tcp 1040 ------- 1 0.0 2.0 18 29
- 1.16352 0 1 tcp 1040 ------- 1 0.0 2.0 18 29
+ 1.16352 0 1 tcp 1040 ------- 1 0.0 2.0 19 30
r 1.1652 0 1 tcp 1040 ------- 1 0.0 2.0 15 24
+ 1.1652 1 2 tcp 1040 ------- 1 0.0 2.0 15 24
- 1.16632 1 2 tcp 1040 ------- 1 0.0 2.0 13 19
- 1.16768 0 1 tcp 1040 ------- 1 0.0 2.0 19 30
r 1.168 1 2 tcp 1040 ------- 1 0.0 2.0 11 17
+ 1.168 2 1 ack 40 ------- 1 2.0 0.0 11 31
- 1.168 2 1 ack 40 ------- 1 2.0 0.0 11 31
r 1.16936 0 1 tcp 1040 ------- 1 0.0 2.0 16 26
+ 1.16936 1 2 tcp 1040 ------- 1 0.0 2.0 16 26
r 1.17 2 1 ack 40 ------- 1 2.0 0.0 10 28
+ 1.17 1 0 ack 40 ------- 1 2.0 0.0 10 28
- 1.17 1 0 ack 40 ------- 1 2.0 0.0 10 28
r 1.17184 1 0 ack 40 ------- 1 2.0 0.0 9 25
+ 1.17184 0 1 tcp 1040 ------- 1 0.0 2.0 20 32
- 1.17184 0 1 tcp 1040 ------- 1 0.0 2.0 20 32
+ 1.17184 0 1 tcp 1040 ------- 1 0.0 2.0 21 33
r 1.17352 0 1 tcp 1040 ------- 1 0.0 2.0 17 27
+ 1.17352 1 2 tcp 1040 ------- 1 0.0 2.0 17 27
- 1.17464 1 2 tcp 1040 ------- 1 0.0 2.0 14 23
- 1.176 0 1 tcp 1040 ------- 1 0.0 2.0 21 33
r 1.17632 1 2 tcp 1040 ------- 1 0.0 2.0 12 18
+ 1.17632 2 1 ack 40 ------- 1 2.0 0.0 12 34
- 1.17632 2 1 ack 40 ------- 1 2.0 0.0 12 34
r 1.17768 0 1 tcp 1040 ------- 1 0.0 2.0 18 29
+ 1.17768 1 2 tcp 1040 ------- 1 0.0 2.0 18 29
r 1.17832 2 1 ack 40 ------- 1 2.0 0.0 11 31
+ 1.17832 1 0 ack 40 ------- 1 2.0 0.0 11 31
- 1.17832 1 0 ack 40 ------- 1 2.0 0.0 11 31
r 1.18016 1 0 ack 40 ------- 1 2.0 0.0 10 28
+ 1.18016 0 1 tcp 1040 ------- 1 0.0 2.0 22 35
- 1.18016 0 1 tcp 1040 ------- 1 0.0 2.0 22 35
+ 1.18016 0 1 tcp 1040 ------- 1 0.0 2.0 23 36
r 1.18184 0 1 tcp 1040 ------- 1 0.0 2.0 19 30
+ 1.18184 1 2 tcp 1040 ------- 1 0.0 2.0 19 30
d 1.18184 1 2 tcp 1040 ------- 1 0.0 2.0 19 30
- 1.18296 1 2 tcp 1040 ------- 1 0.0 2.0 15 24
- 1.18432 0 1 tcp 1040 ------- 1 0.0 2.0 23 36
r 1.18464 1 2 tcp 1040 ------- 1 0.0 2.0 13 19
+ 1.18464 2 1 ack 40 ------- 1 2.0 0.0 13 37
- 1.18464 2 1 ack 40 ------- 1 2.0 0.0 13 37
r 1.186 0 1 tcp 1040 ------- 1 0.0 2.0 20 32
+ 1.186 1 2 tcp 1040 ------- 1 0.0 2.0 20 32
r 1.18664 2 1 ack 40 ------- 1 2.0 0.0 12 34
+ 1.18664 1 0 ack 40 ------- 1 2.0 0.0 12 34
- 1.18664 1 0 ack 40 ------- 1 2.0 0.0 12 34
r 1.18848 1 0 ack 40 ------- 1 2.0 0.0 11 31
+ 1.18848 0 1 tcp 1040 ------- 1 0.0 2.0 24 38
- 1.18848 0 1 tcp 1040 ------- 1 0.0 2.0 24 38
+ 1.18848 0 1 tcp 1040 ------- 1 0.0 2.0 25 39
r 1.19016 0 1 tcp 1040 ------- 1 0.0 2.0 21 33
+ 1.19016 1 2 tcp 1040 ------- 1 0.0 2.0 21 33
d 1.19016 1 2 tcp 1040 ------- 1 0.0 2.0 21 33
- 1.19128 1 2 tcp 1040 ------- 1 0.0 2.0 16 26
- 1.19264 0 1 tcp 1040 ------- 1 0.0 2.0 25 39
r 1.19296 1 2 tcp 1040 ------- 1 0.0 2.0 14 23
+ 1.19296 2 1 ack 40 ------- 1 2.0 0.0 14 40
- 1.19296 2 1 ack 40 ------- 1 2.0 0.0 14 40
r 1.19432 0 1 tcp 1040 ------- 1 0.0 2.0 22 35
+ 1.19432 1 2 tcp 1040 ------- 1 0.0 2.0 22 35
r 1.19496 2 1 ack 40 ------- 1 2.0 0.0 13 37
+ 1.19496 1 0 ack 40 ------- 1 2.0 0.0 13 37
- 1.19496 1 0 ack 40 ------- 1 2.0 0.0 13 37
r 1.1968 1 0 ack 40 ------- 1 2.0 0.0 12 34
+ 1.1968 0 1 tcp 1040 ------- 1 0.0 2.0 26 41
- 1.1968 0 1 tcp 1040 ------- 1 0.0 2.0 26 41
+ 1.1968 0 1 tcp 1040 ------- 1 0.0 2.0 27 42
r 1.19848 0 1 tcp 1040 ------- 1 0.0 2.0 23 36
+ 1.19848 1 2 tcp 1040 ------- 1 0.0 2.0 23 36
d 1.19848 1 2 tcp 1040 ------- 1 0.0 2.0 23 36
- 1.1996 1 2 tcp 1040 ------- 1 0.0 2.0 17 27
- 1.20096 0 1 tcp 1040 ------- 1 0.0 2.0 27 42
r 1.20128 1 2 tcp 1040 ------- 1 0.0 2.0 15 24
+ 1.20128 2 1 ack 40 ------- 1 2.0 0.0 15 43
- 1.20128 2 1 ack 40 ------- 1 2.0 0.0 15 43
r 1.20264 0 1 tcp 1040 ------- 1 0.0 2.0 24 38
+ 1.20264 1 2 tcp 1040 ------- 1 0.0 2.0 24 38
r 1.20328 2 1 ack 40 ------- 1 2.0 0.0 14 40
+ 1.20328 1 0 ack 40 ------- 1 2.0 0.0 14 40
- 1.20328 1 0 ack 40 ------- 1 2.0 0.0 14 40
r 1.20512 1 0 ack 40 ------- 1 2.0 0.0 13 37
+ 1.20512 0 1 tcp 1040 ------- 1 0.0 2.0 28 44
- 1.20512 0 1 tcp 1040 ------- 1 0.0 2.0 28 44
+ 1.20512 0 1 tcp 1040 ------- 1 0.0 2.0 29 45
r 1.2068 0 1 tcp 1040 ------- 1 0.0 2.0 25 39
+ 1.2068 1 2 tcp 1040 ------- 1 0.0 2.0 25 39
d 1.2068 1 2 tcp 1040 ------- 1 0.0 2.0 25 39
- 1.20792 1 2 tcp 1040 ------- 1 0.0 2.0 18 29
- 1.20928 0 1 tcp 1040 ------- 1 0.0 2.0 29 45
r 1.2096 1 2 tcp 1040 ------- 1 0.0 2.0 16 26
+ 1.2096 2 1 ack 40 ------- 1 2.0 0.0 16 46
- 1.2096 2 1 ack 40 ------- 1 2.0 0.0 16 46
r 1.21096 0 1 tcp 1040 ------- 1 0.0 2.0 26 41
+ 1.21096 1 2 tcp 1040 ------- 1 0.0 2.0 26 41
r 1.2116 2 1 ack 40 ------- 1 2.0 0.0 15 43
+ 1.2116 1 0 ack 40 ------- 1 2.0 0.0 15 43
- 1.2116 1 0 ack 40 ------- 1 2.0 0.0 15 43
r 1.21344 1 0 ack 40 ------- 1 2.0 0.0 14 40
+ 1.21344 0 1 tcp 1040 ------- 1 0.0 2.0 30 47
- 1.21344 0 1 tcp 1040 ------- 1 0.0 2.0 30 47
+ 1.21344 0 1 tcp 1040 ------- 1 0.0 2.0 31 48
r 1.21512 0 1 tcp 1040 ------- 1 0.0 2.0 27 42
+ 1.21512 1 2 tcp 1040 ------- 1 0.0 2.0 27 42
d 1.21512 1 2 tcp 1040 ------- 1 0.0 2.0 27 42
- 1.21624 1 2 tcp 1040 ------- 1 0.0 2.0 20 32
- 1.2176 0 1 tcp 1040 ------- 1 0.0 2.0 31 48
r 1.21792 1 2 tcp 1040 ------- 1 0.0 2.0 17 27
+ 1.21792 2 1 ack 40 ------- 1 2.0 0.0 17 49
- 1.21792 2 1 ack 40 ------- 1 2.0 0.0 17 49
r 1.21928 0 1 tcp 1040 ------- 1 0.0 2.0 28 44
+ 1.21928 1 2 tcp 1040 ------- 1 0.0 2.0 28 44
r 1.21992 2 1 ack 40 ------- 1 2.0 0.0 16 46
+ 1.21992 1 0 ack 40 ------- 1 2.0 0.0 16 46
- 1.21992 1 0 ack 40 ------- 1 2.0 0.0 16 46
r 1.22176 1 0 ack 40 ------- 1 2.0 0.0 15 43
+ 1.22176 0 1 tcp 1040 ------- 1 0.0 2.0 32 50
- 1.22176 0 1 tcp 1040 ------- 1 0.0 2.0 32 50
+ 1.22176 0 1 tcp 1040 ------- 1 0.0 2.0 33 51
r 1.22344 0 1 tcp 1040 ------- 1 0.0 2.0 29 45
+ 1.22344 1 2 tcp 1040 ------- 1 0.0 2.0 29 45
d 1.22344 1 2 tcp 1040 ------- 1 0.0 2.0 29 45
- 1.22456 1 2 tcp 1040 ------- 1 0.0 2.0 22 35
- 1.22592 0 1 tcp 1040 ------- 1 0.0 2.0 33 51
r 1.22624 1 2 tcp 1040 ------- 1 0.0 2.0 18 29
+ 1.22624 2 1 ack 40 ------- 1 2.0 0.0 18 52
- 1.22624 2 1 ack 40 ------- 1 2.0 0.0 18 52
r 1.2276 0 1 tcp 1040 ------- 1 0.0 2.0 30 47
+ 1.2276 1 2 tcp 1040 ------- 1 0.0 2.0 30 47
r 1.22824 2 1 ack 40 ------- 1 2.0 0.0 17 49
+ 1.22824 1 0 ack 40 ------- 1 2.0 0.0 17 49
- 1.22824 1 0 ack 40 ------- 1 2.0 0.0 17 49
r 1.23008 1 0 ack 40 ------- 1 2.0 0.0 16 46
+ 1.23008 0 1 tcp 1040 ------- 1 0.0 2.0 34 53
- 1.23008 0 1 tcp 1040 ------- 1 0.0 2.0 34 53
+ 1.23008 0 1 tcp 1040 ------- 1 0.0 2.0 35 54
r 1.23176 0 1 tcp 1040 ------- 1 0.0 2.0 31 48
+ 1.23176 1 2 tcp 1040 ------- 1 0.0 2.0 31 48
d 1.23176 1 2 tcp 1040 ------- 1 0.0 2.0 31 48
- 1.23288 1 2 tcp 1040 ------- 1 0.0 2.0 24 38
- 1.23424 0 1 tcp 1040 ------- 1 0.0 2.0 35 54
r 1.23456 1 2 tcp 1040 ------- 1 0.0 2.0 20 32
+ 1.23456 2 1 ack 40 ------- 1 2.0 0.0 18 55
- 1.23456 2 1 ack 40 ------- 1 2.0 0.0 18 55
r 1.23592 0 1 tcp 1040 ------- 1 0.0 2.0 32 50
+ 1.23592 1 2 tcp 1040 ------- 1 0.0 2.0 32 50
r 1.23656 2 1 ack 40 ------- 1 2.0 0.0 18 52
+ 1.23656 1 0 ack 40 ------- 1 2.0 0.0 18 52
- 1.23656 1 0 ack 40 ------- 1 2.0 0.0 18 52
r 1.2384 1 0 ack 40 ------- 1 2.0 0.0 17 49
+ 1.2384 0 1 tcp 1040 ------- 1 0.0 2.0 36 56
- 1.2384 0 1 tcp 1040 ------- 1 0.0 2.0 36 56
+ 1.2384 0 1 tcp 1040 ------- 1 0.0 2.0 37 57
r 1.24008 0 1 tcp 1040 ------- 1 0.0 2.0 33 51
+ 1.24008 1 2 tcp 1040 ------- 1 0.0 2.0 33 51
d 1.24008 1 2 tcp 1040 ------- 1 0.0 2.0 33 51
- 1.2412 1 2 tcp 1040 ------- 1 0.0 2.0 26 41
- 1.24256 0 1 tcp 1040 ------- 1 0.0 2.0 37 57
r 1.24288 1 2 tcp 1040 ------- 1 0.0 2.0 22 35
+ 1.24288 2 1 ack 40 ------- 1 2.0 0.0 18 58
- 1.24288 2 1 ack 40 ------- 1 2.0 0.0 18 58
r 1.24424 0 1 tcp 1040 ------- 1 0.0 2.0 34 53
+ 1.24424 1 2 tcp 1040 ------- 1 0.0 2.0 34 53
r 1.24488 2 1 ack 40 ------- 1 2.0 0.0 18 55
+ 1.24488 1 0 ack 40 ------- 1 2.0 0.0 18 55
- 1.24488 1 0 ack 40 ------- 1 2.0 0.0 18 55
r 1.24672 1 0 ack 40 ------- 1 2.0 0.0 18 52
+ 1.24672 0 1 tcp 1040 ------- 1 0.0 2.0 38 59
- 1.24672 0 1 tcp 1040 ------- 1 0.0 2.0 38 59
r 1.2484 0 1 tcp 1040 ------- 1 0.0 2.0 35 54
+ 1.2484 1 2 tcp 1040 ------- 1 0.0 2.0 35 54
d 1.2484 1 2 tcp 1040 ------- 1 0.0 2.0 35 54
- 1.24952 1 2 tcp 1040 ------- 1 0.0 2.0 28 44
r 1.2512 1 2 tcp 1040 ------- 1 0.0 2.0 24 38
+ 1.2512 2 1 ack 40 ------- 1 2.0 0.0 18 60
- 1.2512 2 1 ack 40 ------- 1 2.0 0.0 18 60
r 1.25256 0 1 tcp 1040 ------- 1 0.0 2.0 36 56
+ 1.25256 1 2 tcp 1040 ------- 1 0.0 2.0 36 56
r 1.2532 2 1 ack 40 ------- 1 2.0 0.0 18 58
+ 1.2532 1 0 ack 40 ------- 1 2.0 0.0 18 58
- 1.2532 1 0 ack 40 ------- 1 2.0 0.0 18 58
r 1.25504 1 0 ack 40 ------- 1 2.0 0.0 18 55
r 1.25672 0 1 tcp 1040 ------- 1 0.0 2.0 37 57
+ 1.25672 1 2 tcp 1040 ------- 1 0.0 2.0 37 57
d 1.25672 1 2 tcp 1040 ------- 1 0.0 2.0 37 57
- 1.25784 1 2 tcp 1040 ------- 1 0.0 2.0 30 47
r 1.25952 1 2 tcp 1040 ------- 1 0.0 2.0 26 41
+ 1.25952 2 1 ack 40 ------- 1 2.0 0.0 18 61
- 1.25952 2 1 ack 40 ------- 1 2.0 0.0 18 61
r 1.26088 0 1 tcp 1040 ------- 1 0.0 2.0 38 59
+ 1.26088 1 2 tcp 1040 ------- 1 0.0 2.0 38 59
r 1.26152 2 1 ack 40 ------- 1 2.0 0.0 18 60
+ 1.26152 1 0 ack 40 ------- 1 2.0 0.0 18 60
- 1.26152 1 0 ack 40 ------- 1 2.0 0.0 18 60
r 1.26336 1 0 ack 40 ------- 1 2.0 0.0 18 58
- 1.26616 1 2 tcp 1040 ------- 1 0.0 2.0 32 50
r 1.26784 1 2 tcp 1040 ------- 1 0.0 2.0 28 44
+ 1.26784 2 1 ack 40 ------- 1 2.0 0.0 18 62
- 1.26784 2 1 ack 40 ------- 1 2.0 0.0 18 62
r 1.26984 2 1 ack 40 ------- 1 2.0 0.0 18 61
+ 1.26984 1 0 ack 40 ------- 1 2.0 0.0 18 61
- 1.26984 1 0 ack 40 ------- 1 2.0 0.0 18 61
r 1.27168 1 0 ack 40 ------- 1 2.0 0.0 18 60
- 1.27448 1 2 tcp 1040 ------- 1 0.0 2.0 34 53
r 1.27616 1 2 tcp 1040 ------- 1 0.0 2.0 30 47
+ 1.27616 2 1 ack 40 ------- 1 2.0 0.0 18 63
- 1.27616 2 1 ack 40 ------- 1 2.0 0.0 18 63
r 1.27816 2 1 ack 40 ------- 1 2.0 0.0 18 62
+ 1.27816 1 0 ack 40 ------- 1 2.0 0.0 18 62
- 1.27816 1 0 ack 40 ------- 1 2.0 0.0 18 62
r 1.28 1 0 ack 40 ------- 1 2.0 0.0 18 61
- 1.2828 1 2 tcp 1040 ------- 1 0.0 2.0 36 56
r 1.28448 1 2 tcp 1040 ------- 1 0.0 2.0 32 50
+ 1.28448 2 1 ack 40 ------- 1 2.0 0.0 18 64
- 1.28448 2 1 ack 40 ------- 1 2.0 0.0 18 64
r 1.28648 2 1 ack 40 ------- 1 2.0 0.0 18 63
+ 1.28648 1 0 ack 40 ------- 1 2.0 0.0 18 63
- 1.28648 1 0 ack 40 ------- 1 2.0 0.0 18 63
r 1.28832 1 0 ack 40 ------- 1 2.0 0.0 18 62
- 1.29112 1 2 tcp 1040 ------- 1 0.0 2.0 38 59
r 1.2928 1 2 tcp 1040 ------- 1 0.0 2.0 34 53
+ 1.2928 2 1 ack 40 ------- 1 2.0 0.0 18 65
- 1.2928 2 1 ack 40 ------- 1 2.0 0.0 18 65
r 1.2948 2 1 ack 40 ------- 1 2.0 0.0 18 64
+ 1.2948 1 0 ack 40 ------- 1 2.0 0.0 18 64
- 1.2948 1 0 ack 40 ------- 1 2.0 0.0 18 64
r 1.29664 1 0 ack 40 ------- 1 2.0 0.0 18 63
r 1.30112 1 2 tcp 1040 ------- 1 0.0 2.0 36 56
+ 1.30112 2 1 ack 40 ------- 1 2.0 0.0 18 66
- 1.30112 2 1 ack 40 ------- 1 2.0 0.0 18 66
r 1.30312 2 1 ack 40 ------- 1 2.0 0.0 18 65
+ 1.30312 1 0 ack 40 ------- 1 2.0 0.0 18 65
- 1.30312 1 0 ack 40 ------- 1 2.0 0.0 18 65
r 1.30496 1 0 ack 40 ------- 1 2.0 0.0 18 64
r 1.30944 1 2 tcp 1040 ------- 1 0.0 2.0 38 59
+ 1.30944 2 1 ack 40 ------- 1 2.0 0.0 18 67
- 1.30944 2 1 ack 40 ------- 1 2.0 0.0 18 67
r 1.31144 2 1 ack 40 ------- 1 2.0 0.0 18 66
+ 1.31144 1 0 ack 40 ------- 1 2.0 0.0 18 66
- 1.31144 1 0 ack 40 ------- 1 2.0 0.0 18 66
r 1.31328 1 0 ack 40 ------- 1 2.0 0.0 18 65
r 1.31976 2 1 ack 40 ------- 1 2.0 0.0 18 67
+ 1.31976 1 0 ack 40 ------- 1 2.0 0.0 18 67
- 1.31976 1 0 ack 40 ------- 1 2.0 0.0 18 67
r 1.3216 1 0 ack 40 ------- 1 2.0 0.0 18 66
r 1.32992 1 0 ack 40 ------- 1 2.0 0.0 18 67
+ 1.52992 0 1 tcp 1040 ---A--- 1 0.0 2.0 19 68
- 1.52992 0 1 tcp 1040 ---A--- 1 0.0 2.0 19 68
r 1.54408 0 1 tcp 1040 ---A--- 1 0.0 2.0 19 68
+ 1.54408 1 2 tcp 1040 ---A--- 1 0.0 2.0 19 68
- 1.54408 1 2 tcp 1040 ---A--- 1 0.0 2.0 19 68
r 1.5624 1 2 tcp 1040 ---A--- 1 0.0 2.0 19 68
+ 1.5624 2 1 ack 40 ------- 1 2.0 0.0 20 69
- 1.5624 2 1 ack 40 ------- 1 2.0 0.0 20 69
r 1.57272 2 1 ack 40 ------- 1 2.0 0.0 20 69
+ 1.57272 1 0 ack 40 ------- 1 2.0 0.0 20 69
- 1.57272 1 0 ack 40 ------- 1 2.0 0.0 20 69
r 1.58288 1 0 ack 40 ------- 1 2.0 0.0 20 69
+ 1.58288 0 1 tcp 1040 ------- 1 0.0 2.0 21 70
- 1.58288 0 1 tcp 1040 ------- 1 0.0 2.0 21 70
+ 1.58288 0 1 tcp 1040 ------- 1 0.0 2.0 22 71
- 1.58704 0 1 tcp 1040 ------- 1 0.0 2.0 22 71
r 1.59704 0 1 tcp 1040 ------- 1 0.0 2.0 21 70
+ 1.59704 1 2 tcp 1040 ------- 1 0.0 2.0 21 70
- 1.59704 1 2 tcp 1040 ------- 1 0.0 2.0 21 70
r 1.6012 0 1 tcp 1040 ------- 1 0.0 2.0 22 71
+ 1.6012 1 2 tcp 1040 ------- 1 0.0 2.0 22 71
- 1.60536 1 2 tcp 1040 ------- 1 0.0 2.0 22 71
r 1.61536 1 2 tcp 1040 ------- 1 0.0 2.0 21 70
+ 1.61536 2 1 ack 40 ------- 1 2.0 0.0 22 72
- 1.61536 2 1 ack 40 ------- 1 2.0 0.0 22 72
r 1.62368 1 2 tcp 1040 ------- 1 0.0 2.0 22 71
+ 1.62368 2 1 ack 40 ------- 1 2.0 0.0 22 73
- 1.62368 2 1 ack 40 ------- 1 2.0 0.0 22 73
r 1.62568 2 1 ack 40 ------- 1 2.0 0.0 22 72
+ 1.62568 1 0 ack 40 ------- 1 2.0 0.0 22 72
- 1.62568 1 0 ack 40 ------- 1 2.0 0.0 22 72
r 1.634 2 1 ack 40 ------- 1 2.0 0.0 22 73
+ 1.634 1 0 ack 40 ------- 1 2.0 0.0 22 73
- 1.634 1 0 ack 40 ------- 1 2.0 0.0 22 73
r 1.63584 1 0 ack 40 ------- 1 2.0 0.0 22 72
+ 1.63584 0 1 tcp 1040 ------- 1 0.0 2.0 23 74
- 1.63584 0 1 tcp 1040 ------- 1 0.0 2.0 23 74
+ 1.63584 0 1 tcp 1040 ------- 1 0.0 2.0 24 75
+ 1.63584 0 1 tcp 1040 ------- 1 0.0 2.0 25 76
- 1.64 0 1 tcp 1040 ------- 1 0.0 2.0 24 75
- 1.64416 0 1 tcp 1040 ------- 1 0.0 2.0 25 76
r 1.64416 1 0 ack 40 ------- 1 2.0 0.0 22 73
r 1.65 0 1 tcp 1040 ------- 1 0.0 2.0 23 74
+ 1.65 1 2 tcp 1040 ------- 1 0.0 2.0 23 74
- 1.65 1 2 tcp 1040 ------- 1 0.0 2.0 23 74
r 1.65416 0 1 tcp 1040 ------- 1 0.0 2.0 24 75
+ 1.65416 1 2 tcp 1040 ------- 1 0.0 2.0 24 75
r 1.65832 0 1 tcp 1040 ------- 1 0.0 2.0 25 76
+ 1.65832 1 2 tcp 1040 ------- 1 0.0 2.0 25 76
- 1.65832 1 2 tcp 1040 ------- 1 0.0 2.0 24 75
- 1.66664 1 2 tcp 1040 ------- 1 0.0 2.0 25 76
r 1.66832 1 2 tcp 1040 ------- 1 0.0 2.0 23 74
+ 1.66832 2 1 ack 40 ------- 1 2.0 0.0 24 77
- 1.66832 2 1 ack 40 ------- 1 2.0 0.0 24 77
r 1.67664 1 2 tcp 1040 ------- 1 0.0 2.0 24 75
+ 1.67664 2 1 ack 40 ------- 1 2.0 0.0 24 78
- 1.67664 2 1 ack 40 ------- 1 2.0 0.0 24 78
r 1.67864 2 1 ack 40 ------- 1 2.0 0.0 24 77
+ 1.67864 1 0 ack 40 ------- 1 2.0 0.0 24 77
- 1.67864 1 0 ack 40 ------- 1 2.0 0.0 24 77
r 1.68496 1 2 tcp 1040 ------- 1 0.0 2.0 25 76
+ 1.68496 2 1 ack 40 ------- 1 2.0 0.0 26 79
- 1.68496 2 1 ack 40 ------- 1 2.0 0.0 26 79
r 1.68696 2 1 ack 40 ------- 1 2.0 0.0 24 78
+ 1.68696 1 0 ack 40 ------- 1 2.0 0.0 24 78
- 1.68696 1 0 ack 40 ------- 1 2.0 0.0 24 78
r 1.6888 1 0 ack 40 ------- 1 2.0 0.0 24 77
+ 1.6888 0 1 tcp 1040 ------- 1 0.0 2.0 26 80
- 1.6888 0 1 tcp 1040 ------- 1 0.0 2.0 26 80
+ 1.6888 0 1 tcp 1040 ------- 1 0.0 2.0 27 81
+ 1.6888 0 1 tcp 1040 ------- 1 0.0 2.0 28 82
- 1.69296 0 1 tcp 1040 ------- 1 0.0 2.0 27 81
r 1.69528 2 1 ack 40 ------- 1 2.0 0.0 26 79
+ 1.69528 1 0 ack 40 ------- 1 2.0 0.0 26 79
- 1.69528 1 0 ack 40 ------- 1 2.0 0.0 26 79
- 1.69712 0 1 tcp 1040 ------- 1 0.0 2.0 28 82
r 1.69712 1 0 ack 40 ------- 1 2.0 0.0 24 78
r 1.70296 0 1 tcp 1040 ------- 1 0.0 2.0 26 80
+ 1.70296 1 2 tcp 1040 ------- 1 0.0 2.0 26 80
- 1.70296 1 2 tcp 1040 ------- 1 0.0 2.0 26 80
r 1.70544 1 0 ack 40 ------- 1 2.0 0.0 26 79
+ 1.70544 0 1 tcp 1040 ------- 1 0.0 2.0 29 83
- 1.70544 0 1 tcp 1040 ------- 1 0.0 2.0 29 83
+ 1.70544 0 1 tcp 1040 ------- 1 0.0 2.0 30 84
+ 1.70544 0 1 tcp 1040 ------- 1 0.0 2.0 31 85
r 1.70712 0 1 tcp 1040 ------- 1 0.0 2.0 27 81
+ 1.70712 1 2 tcp 1040 ------- 1 0.0 2.0 27 81
- 1.7096 0 1 tcp 1040 ------- 1 0.0 2.0 30 84
r 1.71128 0 1 tcp 1040 ------- 1 0.0 2.0 28 82
+ 1.71128 1 2 tcp 1040 ------- 1 0.0 2.0 28 82
- 1.71128 1 2 tcp 1040 ------- 1 0.0 2.0 27 81
- 1.71376 0 1 tcp 1040 ------- 1 0.0 2.0 31 85
r 1.7196 0 1 tcp 1040 ------- 1 0.0 2.0 29 83
+ 1.7196 1 2 tcp 1040 ------- 1 0.0 2.0 29 83
- 1.7196 1 2 tcp 1040 ------- 1 0.0 2.0 28 82
r 1.72128 1 2 tcp 1040 ------- 1 0.0 2.0 26 80
+ 1.72128 2 1 ack 40 ------- 1 2.0 0.0 26 86
- 1.72128 2 1 ack 40 ------- 1 2.0 0.0 26 86
r 1.72376 0 1 tcp 1040 ------- 1 0.0 2.0 30 84
+ 1.72376 1 2 tcp 1040 ------- 1 0.0 2.0 30 84
r 1.72792 0 1 tcp 1040 ------- 1 0.0 2.0 31 85
+ 1.72792 1 2 tcp 1040 ------- 1 0.0 2.0 31 85
- 1.72792 1 2 tcp 1040 ------- 1 0.0 2.0 29 83
r 1.7296 1 2 tcp 1040 ------- 1 0.0 2.0 27 81
+ 1.7296 2 1 ack 40 ------- 1 2.0 0.0 28 87
- 1.7296 2 1 ack 40 ------- 1 2.0 0.0 28 87
r 1.7316 2 1 ack 40 ------- 1 2.0 0.0 26 86
+ 1.7316 1 0 ack 40 ------- 1 2.0 0.0 26 86
- 1.7316 1 0 ack 40 ------- 1 2.0 0.0 26 86
- 1.73624 1 2 tcp 1040 ------- 1 0.0 2.0 30 84
r 1.73792 1 2 tcp 1040 ------- 1 0.0 2.0 28 82
+ 1.73792 2 1 ack 40 ------- 1 2.0 0.0 28 88
- 1.73792 2 1 ack 40 ------- 1 2.0 0.0 28 88
r 1.73992 2 1 ack 40 ------- 1 2.0 0.0 28 87
+ 1.73992 1 0 ack 40 ------- 1 2.0 0.0 28 87
- 1.73992 1 0 ack 40 ------- 1 2.0 0.0 28 87
r 1.74176 1 0 ack 40 ------- 1 2.0 0.0 26 86
- 1.74456 1 2 tcp 1040 ------- 1 0.0 2.0 31 85
r 1.74624 1 2 tcp 1040 ------- 1 0.0 2.0 29 83
+ 1.74624 2 1 ack 40 ------- 1 2.0 0.0 30 89
- 1.74624 2 1 ack 40 ------- 1 2.0 0.0 30 89
r 1.74824 2 1 ack 40 ------- 1 2.0 0.0 28 88
+ 1.74824 1 0 ack 40 ------- 1 2.0 0.0 28 88
- 1.74824 1 0 ack 40 ------- 1 2.0 0.0 28 88
r 1.75008 1 0 ack 40 ------- 1 2.0 0.0 28 87
+ 1.75008 0 1 tcp 1040 ------- 1 0.0 2.0 32 90
- 1.75008 0 1 tcp 1040 ------- 1 0.0 2.0 32 90
+ 1.75008 0 1 tcp 1040 ------- 1 0.0 2.0 33 91
+ 1.75008 0 1 tcp 1040 ------- 1 0.0 2.0 34 92
- 1.75424 0 1 tcp 1040 ------- 1 0.0 2.0 33 91
r 1.75456 1 2 tcp 1040 ------- 1 0.0 2.0 30 84
+ 1.75456 2 1 ack 40 ------- 1 2.0 0.0 30 93
- 1.75456 2 1 ack 40 ------- 1 2.0 0.0 30 93
r 1.75656 2 1 ack 40 ------- 1 2.0 0.0 30 89
+ 1.75656 1 0 ack 40 ------- 1 2.0 0.0 30 89
- 1.75656 1 0 ack 40 ------- 1 2.0 0.0 30 89
- 1.7584 0 1 tcp 1040 ------- 1 0.0 2.0 34 92
r 1.7584 1 0 ack 40 ------- 1 2.0 0.0 28 88
r 1.76288 1 2 tcp 1040 ------- 1 0.0 2.0 31 85
+ 1.76288 2 1 ack 40 ------- 1 2.0 0.0 32 94
- 1.76288 2 1 ack 40 ------- 1 2.0 0.0 32 94
r 1.76424 0 1 tcp 1040 ------- 1 0.0 2.0 32 90
+ 1.76424 1 2 tcp 1040 ------- 1 0.0 2.0 32 90
- 1.76424 1 2 tcp 1040 ------- 1 0.0 2.0 32 90
r 1.76488 2 1 ack 40 ------- 1 2.0 0.0 30 93
+ 1.76488 1 0 ack 40 ------- 1 2.0 0.0 30 93
- 1.76488 1 0 ack 40 ------- 1 2.0 0.0 30 93
r 1.76672 1 0 ack 40 ------- 1 2.0 0.0 30 89
+ 1.76672 0 1 tcp 1040 ------- 1 0.0 2.0 35 95
- 1.76672 0 1 tcp 1040 ------- 1 0.0 2.0 35 95
+ 1.76672 0 1 tcp 1040 ------- 1 0.0 2.0 36 96
+ 1.76672 0 1 tcp 1040 ------- 1 0.0 2.0 37 97
r 1.7684 0 1 tcp 1040 ------- 1 0.0 2.0 33 91
+ 1.7684 1 2 tcp 1040 ------- 1 0.0 2.0 33 91
- 1.77088 0 1 tcp 1040 ------- 1 0.0 2.0 36 96
r 1.77256 0 1 tcp 1040 ------- 1 0.0 2.0 34 92
+ 1.77256 1 2 tcp 1040 ------- 1 0.0 2.0 34 92
- 1.77256 1 2 tcp 1040 ------- 1 0.0 2.0 33 91
r 1.7732 2 1 ack 40 ------- 1 2.0 0.0 32 94
+ 1.7732 1 0 ack 40 ------- 1 2.0 0.0 32 94
- 1.7732 1 0 ack 40 ------- 1 2.0 0.0 32 94
- 1.77504 0 1 tcp 1040 ------- 1 0.0 2.0 37 97
r 1.77504 1 0 ack 40 ------- 1 2.0 0.0 30 93
r 1.78088 0 1 tcp 1040 ------- 1 0.0 2.0 35 95
+ 1.78088 1 2 tcp 1040 ------- 1 0.0 2.0 35 95
- 1.78088 1 2 tcp 1040 ------- 1 0.0 2.0 34 92
r 1.78256 1 2 tcp 1040 ------- 1 0.0 2.0 32 90
+ 1.78256 2 1 ack 40 ------- 1 2.0 0.0 32 98
- 1.78256 2 1 ack 40 ------- 1 2.0 0.0 32 98
r 1.78336 1 0 ack 40 ------- 1 2.0 0.0 32 94
+ 1.78336 0 1 tcp 1040 ------- 1 0.0 2.0 38 99
- 1.78336 0 1 tcp 1040 ------- 1 0.0 2.0 38 99
+ 1.78336 0 1 tcp 1040 ------- 1 0.0 2.0 39 100
+ 1.78336 0 1 tcp 1040 ------- 1 0.0 2.0 40 101
r 1.78504 0 1 tcp 1040 ------- 1 0.0 2.0 36 96
+ 1.78504 1 2 tcp 1040 ------- 1 0.0 2.0 36 96
- 1.78752 0 1 tcp 1040 ------- 1 0.0 2.0 39 100
r 1.7892 0 1 tcp 1040 ------- 1 0.0 2.0 37 97
+ 1.7892 1 2 tcp 1040 ------- 1 0.0 2.0 37 97
- 1.7892 1 2 tcp 1040 ------- 1 0.0 2.0 35 95
r 1.79088 1 2 tcp 1040 ------- 1 0.0 2.0 33 91
+ 1.79088 2 1 ack 40 ------- 1 2.0 0.0 34 102
- 1.79088 2 1 ack 40 ------- 1 2.0 0.0 34 102
- 1.79168 0 1 tcp 1040 ------- 1 0.0 2.0 40 101
r 1.79288 2 1 ack 40 ------- 1 2.0 0.0 32 98
+ 1.79288 1 0 ack 40 ------- 1 2.0 0.0 32 98
- 1.79288 1 0 ack 40 ------- 1 2.0 0.0 32 98
r 1.79752 0 1 tcp 1040 ------- 1 0.0 2.0 38 99
+ 1.79752 1 2 tcp 1040 ------- 1 0.0 2.0 38 99
- 1.79752 1 2 tcp 1040 ------- 1 0.0 2.0 36 96
r 1.7992 1 2 tcp 1040 ------- 1 0.0 2.0 34 92
+ 1.7992 2 1 ack 40 ------- 1 2.0 0.0 34 103
- 1.7992 2 1 ack 40 ------- 1 2.0 0.0 34 103
r 1.8012 2 1 ack 40 ------- 1 2.0 0.0 34 102
+ 1.8012 1 0 ack 40 ------- 1 2.0 0.0 34 102
- 1.8012 1 0 ack 40 ------- 1 2.0 0.0 34 102
r 1.80168 0 1 tcp 1040 ------- 1 0.0 2.0 39 100
+ 1.80168 1 2 tcp 1040 ------- 1 0.0 2.0 39 100
r 1.80304 1 0 ack 40 ------- 1 2.0 0.0 32 98
r 1.80584 0 1 tcp 1040 ------- 1 0.0 2.0 40 101
+ 1.80584 1 2 tcp 1040 ------- 1 0.0 2.0 40 101
- 1.80584 1 2 tcp 1040 ------- 1 0.0 2.0 37 97
r 1.80752 1 2 tcp 1040 ------- 1 0.0 2.0 35 95
+ 1.80752 2 1 ack 40 ------- 1 2.0 0.0 36 104
- 1.80752 2 1 ack 40 ------- 1 2.0 0.0 36 104
r 1.80952 2 1 ack 40 ------- 1 2.0 0.0 34 103
+ 1.80952 1 0 ack 40 ------- 1 2.0 0.0 34 103
- 1.80952 1 0 ack 40 ------- 1 2.0 0.0 34 103
r 1.81136 1 0 ack 40 ------- 1 2.0 0.0 34 102
+ 1.81136 0 1 tcp 1040 ------- 1 0.0 2.0 41 105
- 1.81136 0 1 tcp 1040 ------- 1 0.0 2.0 41 105
+ 1.81136 0 1 tcp 1040 ------- 1 0.0 2.0 42 106
+ 1.81136 0 1 tcp 1040 ------- 1 0.0 2.0 43 107
- 1.81416 1 2 tcp 1040 ------- 1 0.0 2.0 38 99
- 1.81552 0 1 tcp 1040 ------- 1 0.0 2.0 42 106
r 1.81584 1 2 tcp 1040 ------- 1 0.0 2.0 36 96
+ 1.81584 2 1 ack 40 ------- 1 2.0 0.0 36 108
- 1.81584 2 1 ack 40 ------- 1 2.0 0.0 36 108
r 1.81784 2 1 ack 40 ------- 1 2.0 0.0 36 104
+ 1.81784 1 0 ack 40 ------- 1 2.0 0.0 36 104
- 1.81784 1 0 ack 40 ------- 1 2.0 0.0 36 104
- 1.81968 0 1 tcp 1040 ------- 1 0.0 2.0 43 107
r 1.81968 1 0 ack 40 ------- 1 2.0 0.0 34 103
- 1.82248 1 2 tcp 1040 ------- 1 0.0 2.0 39 100
r 1.82416 1 2 tcp 1040 ------- 1 0.0 2.0 37 97
+ 1.82416 2 1 ack 40 ------- 1 2.0 0.0 38 109
- 1.82416 2 1 ack 40 ------- 1 2.0 0.0 38 109
r 1.82552 0 1 tcp 1040 ------- 1 0.0 2.0 41 105
+ 1.82552 1 2 tcp 1040 ------- 1 0.0 2.0 41 105
r 1.82616 2 1 ack 40 ------- 1 2.0 0.0 36 108
+ 1.82616 1 0 ack 40 ------- 1 2.0 0.0 36 108
- 1.82616 1 0 ack 40 ------- 1 2.0 0.0 36 108
r 1.828 1 0 ack 40 ------- 1 2.0 0.0 36 104
+ 1.828 0 1 tcp 1040 ------- 1 0.0 2.0 44 110
- 1.828 0 1 tcp 1040 ------- 1 0.0 2.0 44 110
+ 1.828 0 1 tcp 1040 ------- 1 0.0 2.0 45 111
+ 1.828 0 1 tcp 1040 ------- 1 0.0 2.0 46 112
r 1.82968 0 1 tcp 1040 ------- 1 0.0 2.0 42 106
+ 1.82968 1 2 tcp 1040 ------- 1 0.0 2.0 42 106
- 1.8308 1 2 tcp 1040 ------- 1 0.0 2.0 40 101
- 1.83216 0 1 tcp 1040 ------- 1 0.0 2.0 45 111
r 1.83248 1 2 tcp 1040 ------- 1 0.0 2.0 38 99
+ 1.83248 2 1 ack 40 ------- 1 2.0 0.0 38 113
- 1.83248 2 1 ack 40 ------- 1 2.0 0.0 38 113
r 1.83384 0 1 tcp 1040 ------- 1 0.0 2.0 43 107
+ 1.83384 1 2 tcp 1040 ------- 1 0.0 2.0 43 107
r 1.83448 2 1 ack 40 ------- 1 2.0 0.0 38 109
+ 1.83448 1 0 ack 40 ------- 1 2.0 0.0 38 109
- 1.83448 1 0 ack 40 ------- 1 2.0 0.0 38 109
- 1.83632 0 1 tcp 1040 ------- 1 0.0 2.0 46 112
r 1.83632 1 0 ack 40 ------- 1 2.0 0.0 36 108
- 1.83912 1 2 tcp 1040 ------- 1 0.0 2.0 41 105
r 1.8408 1 2 tcp 1040 ------- 1 0.0 2.0 39 100
+ 1.8408 2 1 ack 40 ------- 1 2.0 0.0 39 114
- 1.8408 2 1 ack 40 ------- 1 2.0 0.0 39 114
r 1.84216 0 1 tcp 1040 ------- 1 0.0 2.0 44 110
+ 1.84216 1 2 tcp 1040 ------- 1 0.0 2.0 44 110
r 1.8428 2 1 ack 40 ------- 1 2.0 0.0 38 113