V -t * -v 1.0a5 -a 0
A -t * -n 1 -p 0 -o 0x7fffffff -c 30 -a 1
A -t * -h 1 -m 1073741823 -s 0
c -t * -i 1 -n Blue
n -t * -a 0 -s 0 -S UP -v circle -c black -i black
n -t * -a 1 -s 1 -S UP -v circle -c black -i black
n -t * -a 2 -s 2 -S UP -v circle -c black -i black
l -t * -s 0 -d 1 -S UP -r 2000000 -D 0.01 -c black
l -t * -s 1 -d 2 -S UP -r 1000000 -D 0.01 -c black
+ -t 1 -s 0 -d 1 -p tcp -e 40 -c 1 -i 0 -a 1 -x {0.0 2.0 0 ------- null}
- -t 1 -s 0 -d 1 -p tcp -e 40 -c 1 -i 0 -a 1 -x {0.0 2.0 0 ------- null}
h -t 1 -s 0 -d 1 -p tcp -e 40 -c 1 -i 0 -a 1 -x {0.0 2.0 -1 ------- null}
+ -t 1 -s 0 -d 1 -p tcp -e 1040 -c 1 -i 1 -a 1 -x {0.0 2.0 1 ------- null}
- -t 1.00016 -s 0 -d 1 -p tcp -e 1040 -c 1 -i 1 -a 1 -x {0.0 2.0 1 ------- null}
h -t 1.00016 -s 0 -d 1 -p tcp -e 1040 -c 1 -i 1 -a 1 -x {0.0 2.0 -1 ------- null}
r -t 1.01016 -s 0 -d 1 -p tcp -e 40 -c 1 -i 0 -a 1 -x {0.0 2.0 0 ------- null}
+ -t 1.01016 -s 1 -d 2 -p tcp -e 40 -c 1 -i 0 -a 1 -x {0.0 2.0 0 ------- null}
- -t 1.01016 -s 1 -d 2 -p tcp -e 40 -c 1 -i 0 -a 1 -x {0.0 2.0 0 ------- null}
h -t 1.01016 -s 1 -d 2 -p tcp -e 40 -c 1 -i 0 -a 1 -x {0.0 2.0 -1 ------- null}
r -t 1.01432 -s 0 -d 1 -p tcp -e 1040 -c 1 -i 1 -a 1 -x {0.0 2.0 1 ------- null}
+ -t 1.01432 -s 1 -d 2 -p tcp -e 1040 -c 1 -i 1 -a 1 -x {0.0 2.0 1 ------- null}
- -t 1.01432 -s 1 -d 2 -p tcp -e 1040 -c 1 -i 1 -a 1 -x {0.0 2.0 1 ------- null}
h -t 1.01432 -s 1 -d 2 -p tcp -e 1040 -c 1 -i 1 -a 1 -x {0.0 2.0 -1 ------- null}
r -t 1.02048 -s 1 -d 2 -p tcp -e 40 -c 1 -i 0 -a 1 -x {0.0 2.0 0 ------- null}
+ -t 1.02048 -s 2 -d 1 -p ack -e 40 -c 1 -i 2 -a 1 -x {2.0 0.0 0 ------- null}
- -t 1.02048 -s 2 -d 1 -p ack -e 40 -c 1 -i 2 -a 1 -x {2.0 0.0 0 ------- null}
h -t 1.02048 -s 2 -d 1 -p ack -e 40 -c 1 -i 2 -a 1 -x {2.0 0.0 -1 ------- null}
r -t 1.0308 -s 2 -d 1 -p ack -e 40 -c 1 -i 2 -a 1 -x {2.0 0.0 0 ------- null}
+ -t 1.0308 -s 1 -d 0 -p ack -e 40 -c 1 -i 2 -a 1 -x {2.0 0.0 0 ------- null}
- -t 1.0308 -s 1 -d 0 -p ack -e 40 -c 1 -i 2 -a 1 -x {2.0 0.0 0 ------- null}
h -t 1.0308 -s 1 -d 0 -p ack -e 40 -c 1 -i 2 -a 1 -x {2.0 0.0 -1 ------- null}
r -t 1.03264 -s 1 -d 2 -p tcp -e 1040 -c 1 -i 1 -a 1 -x {0.0 2.0 1 ------- null}
+ -t 1.03264 -s 2 -d 1 -p ack -e 40 -c 1 -i 3 -a 1 -x {2.0 0.0 1 ------- null}
- -t 1.03264 -s 2 -d 1 -p ack -e 40 -c 1 -i 3 -a 1 -x {2.0 0.0 1 ------- null}
h -t 1.03264 -s 2 -d 1 -p ack -e 40 -c 1 -i 3 -a 1 -x {2.0 0.0 -1 ------- null}
r -t 1.04096 -s 1 -d 0 -p ack -e 40 -c 1 -i 2 -a 1 -x {2.0 0.0 0 ------- null}
+ -t 1.04096 -s 0 -d 1 -p tcp -e 1040 -c 1 -i 4 -a 1 -x {0.0 2.0 2 ------- null}
- -t 1.04096 -s 0 -d 1 -p tcp -e 1040 -c 1 -i 4 -a 1 -x {0.0 2.0 2 ------- null}
h -t 1.04096 -s 0 -d 1 -p tcp -e 1040 -c 1 -i 4 -a 1 -x {0.0 2.0 -1 ------- null}
+ -t 1.04096 -s 0 -d 1 -p tcp -e 1040 -c 1 -i 5 -a 1 -x {0.0 2.0 3 ------- null}
r -t 1.04296 -s 2 -d 1 -p ack -e 40 -c 1 -i 3 -a 1 -x {2.0 0.0 1 ------- null}
+ -t 1.04296 -s 1 -d 0 -p ack -e 40 -c 1 -i 3 -a 1 -x {2.0 0.0 1 ------- null}
- -t 1.04296 -s 1 -d 0 -p ack -e 40 -c 1 -i 3 -a 1 -x {2.0 0.0 1 ------- null}
h -t 1.04296 -s 1 -d 0 -p ack -e 40 -c 1 -i 3 -a 1 -x {2.0 0.0 -1 ------- null}
- -t 1.04512 -s 0 -d 1 -p tcp -e 1040 -c 1 -i 5 -a 1 -x {0.0 2.0 3 ------- null}
h -t 1.04512 -s 0 -d 1 -p tcp -e 1040 -c 1 -i 5 -a 1 -x {0.0 2.0 -1 ------- null}
r -t 1.05312 -s 1 -d 0 -p ack -e 40 -c 1 -i 3 -a 1 -x {2.0 0.0 1 ------- null}
+ -t 1.05312 -s 0 -d 1 -p tcp -e 1040 -c 1 -i 6 -a 1 -x {0.0 2.0 4 ------- null}
- -t 1.05312 -s 0 -d 1 -p tcp -e 1040 -c 1 -i 6 -a 1 -x {0.0 2.0 4 ------- null}
h -t 1.05312 -s 0 -d 1 -p tcp -e 1040 -c 1 -i 6 -a 1 -x {0.0 2.0 -1 ------- null}
+ -t 1.05312 -s 0 -d 1 -p tcp -e 1040 -c 1 -i 7 -a 1 -x {0.0 2.0 5 ------- null}
r -t 1.05512 -s 0 -d 1 -p tcp -e 1040 -c 1 -i 4 -a 1 -x {0.0 2.0 2 ------- null}
+ -t 1.05512 -s 1 -d 2 -p tcp -e 1040 -c 1 -i 4 -a 1 -x {0.0 2.0 2 ------- null}
- -t 1.05512 -s 1 -d 2 -p tcp -e 1040 -c 1 -i 4 -a 1 -x {0.0 2.0 2 ------- null}
h -t 1.05512 -s 1 -d 2 -p tcp -e 1040 -c 1 -i 4 -a 1 -x {0.0 2.0 -1 ------- null}
- -t 1.05728 -s 0 -d 1 -p tcp -e 1040 -c 1 -i 7 -a 1 -x {0.0 2.0 5 ------- null}
h -t 1.05728 -s 0 -d 1 -p tcp -e 1040 -c 1 -i 7 -a 1 -x {0.0 2.0 -1 ------- null}
r -t 1.05928 -s 0 -d 1 -p tcp -e 1040 -c 1 -i 5 -a 1 -x {0.0 2.0 3 ------- null}
+ -t 1.05928 -s 1 -d 2 -p tcp -e 1040 -c 1 -i 5 -a 1 -x {0.0 2.0 3 ------- null}
- -t 1.06344 -s 1 -d 2 -p tcp -e 1040 -c 1 -i 5 -a 1 -x {0.0 2.0 3 ------- null}
h -t 1.06344 -s 1 -d 2 -p tcp -e 1040 -c 1 -i 5 -a 1 -x {0.0 2.0 -1 ------- null}
r -t 1.06728 -s 0 -d 1 -p tcp -e 1040 -c 1 -i 6 -a 1 -x {0.0 2.0 4 ------- null}
+ -t 1.06728 -s 1 -d 2 -p tcp -e 1040 -c 1 -i 6 -a 1 -x {0.0 2.0 4 ------- null}
r -t 1.07144 -s 0 -d 1 -p tcp -e 1040 -c 1 -i 7 -a 1 -x {0.0 2.0 5 ------- null}
+ -t 1.07144 -s 1 -d 2 -p tcp -e 1040 -c 1 -i 7 -a 1 -x {0.0 2.0 5 ------- null}
- -t 1.07176 -s 1 -d 2 -p tcp -e 1040 -c 1 -i 6 -a 1 -x {0.0 2.0 4 ------- null}
h -t 1.07176 -s 1 -d 2 -p tcp -e 1040 -c 1 -i 6 -a 1 -x {0.0 2.0 -1 ------- null}
r -t 1.07344 -s 1 -d 2 -p tcp -e 1040 -c 1 -i 4 -a 1 -x {0.0 2.0 2 ------- null}
+ -t 1.07344 -s 2 -d 1 -p ack -e 40 -c 1 -i 8 -a 1 -x {2.0 0.0 2 ------- null}
- -t 1.07344 -s 2 -d 1 -p ack -e 40 -c 1 -i 8 -a 1 -x {2.0 0.0 2 ------- null}
h -t 1.07344 -s 2 -d 1 -p ack -e 40 -c 1 -i 8 -a 1 -x {2.0 0.0 -1 ------- null}
- -t 1.08008 -s 1 -d 2 -p tcp -e 1040 -c 1 -i 7 -a 1 -x {0.0 2.0 5 ------- null}
h -t 1.08008 -s 1 -d 2 -p tcp -e 1040 -c 1 -i 7 -a 1 -x {0.0 2.0 -1 ------- null}
r -t 1.08176 -s 1 -d 2 -p tcp -e 1040 -c 1 -i 5 -a 1 -x {0.0 2.0 3 ------- null}
+ -t 1.08176 -s 2 -d 1 -p ack -e 40 -c 1 -i 9 -a 1 -x {2.0 0.0 3 ------- null}
- -t 1.08176 -s 2 -d 1 -p ack -e 40 -c 1 -i 9 -a 1 -x {2.0 0.0 3 ------- null}
h -t 1.08176 -s 2 -d 1 -p ack -e 40 -c 1 -i 9 -a 1 -x {2.0 0.0 -1 ------- null}
r -t 1.08376 -s 2 -d 1 -p ack -e 40 -c 1 -i 8 -a 1 -x {2.0 0.0 2 ------- null}
+ -t 1.08376 -s 1 -d 0 -p ack -e 40 -c 1 -i 8 -a 1 -x {2.0 0.0 2 ------- null}
- -t 1.08376 -s 1 -d 0 -p ack -e 40 -c 1 -i 8 -a 1 -x {2.0 0.0 2 ------- null}
h -t 1.08376 -s 1 -d 0 -p ack -e 40 -c 1 -i 8 -a 1 -x {2.0 0.0 -1 ------- null}
r -t 1.09008 -s 1 -d 2 -p tcp -e 1040 -c 1 -i 6 -a 1 -x {0.0 2.0 4 ------- null}
+ -t 1.09008 -s 2 -d 1 -p ack -e 40 -c 1 -i 10 -a 1 -x {2.0 0.0 4 ------- null}
- -t 1.09008 -s 2 -d 1 -p ack -e 40 -c 1 -i 10 -a 1 -x {2.0 0.0 4 ------- null}
h -t 1.09008 -s 2 -d 1 -p ack -e 40 -c 1 -i 10 -a 1 -x {2.0 0.0 -1 ------- null}
r -t 1.09208 -s 2 -d 1 -p ack -e 40 -c 1 -i 9 -a 1 -x {2.0 0.0 3 ------- null}
+ -t 1.09208 -s 1 -d 0 -p ack -e 40 -c 1 -i 9 -a 1 -x {2.0 0.0 3 ------- null}
- -t 1.09208 -s 1 -d 0 -p ack -e 40 -c 1 -i 9 -a 1 -x {2.0 0.0 3 ------- null}
h -t 1.09208 -s 1 -d 0 -p ack -e 40 -c 1 -i 9 -a 1 -x {2.0 0.0 -1 ------- null}
r -t 1.09392 -s 1 -d 0 -p ack -e 40 -c 1 -i 8 -a 1 -x {2.0 0.0 2 ------- null}
+ -t 1.09392 -s 0 -d 1 -p tcp -e 1040 -c 1 -i 11 -a 1 -x {0.0 2.0 6 ------- null}
- -t 1.09392 -s 0 -d 1 -p tcp -e 1040 -c 1 -i 11 -a 1 -x {0.0 2.0 6 ------- null}
h -t 1.09392 -s 0 -d 1 -p tcp -e 1040 -c 1 -i 11 -a 1 -x {0.0 2.0 -1 ------- null}
+ -t 1.09392 -s 0 -d 1 -p tcp -e 1040 -c 1 -i 12 -a 1 -x {0.0 2.0 7 ------- null}
- -t 1.09808 -s 0 -d 1 -p tcp -e 1040 -c 1 -i 12 -a 1 -x {0.0 2.0 7 ------- null}
h -t 1.09808 -s 0 -d 1 -p tcp -e 1040 -c 1 -i 12 -a 1 -x {0.0 2.0 -1 ------- null}
r -t 1.0984 -s 1 -d 2 -p tcp -e 1040 -c 1 -i 7 -a 1 -x {0.0 2.0 5 ------- null}
+ -t 1.0984 -s 2 -d 1 -p ack -e 40 -c 1 -i 13 -a 1 -x {2.0 0.0 5 ------- null}
- -t 1.0984 -s 2 -d 1 -p ack -e 40 -c 1 -i 13 -a 1 -x {2.0 0.0 5 ------- null}
h -t 1.0984 -s 2 -d 1 -p ack -e 40 -c 1 -i 13 -a 1 -x {2.0 0.0 -1 ------- null}
r -t 1.1004 -s 2 -d 1 -p ack -e 40 -c 1 -i 10 -a 1 -x {2.0 0.0 4 ------- null}
+ -t 1.1004 -s 1 -d 0 -p ack -e 40 -c 1 -i 10 -a 1 -x {2.0 0.0 4 ------- null}
- -t 1.1004 -s 1 -d 0 -p ack -e 40 -c 1 -i 10 -a 1 -x {2.0 0.0 4 ------- null}
h -t 1.1004 -s 1 -d 0 -p ack -e 40 -c 1 -i 10 -a 1 -x {2.0 0.0 -1 ------- null}
r -t 1.10224 -s 1 -d 0 -p ack -e 40 -c 1 -i 9 -a 1 -x {2.0 0.0 3 ------- null}
+ -t 1.10224 -s 0 -d 1 -p tcp -e 1040 -c 1 -i 14 -a 1 -x {0.0 2.0 8 ------- null}
- -t 1.10224 -s 0 -d 1 -p tcp -e 1040 -c 1 -i 14 -a 1 -x {0.0 2.0 8 ------- null}
h -t 1.10224 -s 0 -d 1 -p tcp -e 1040 -c 1 -i 14 -a 1 -x {0.0 2.0 -1 ------- null}
+ -t 1.10224 -s 0 -d 1 -p tcp -e 1040 -c 1 -i 15 -a 1 -x {0.0 2.0 9 ------- null}
- -t 1.1064 -s 0 -d 1 -p tcp -e 1040 -c 1 -i 15 -a 1 -x {0.0 2.0 9 ------- null}
h -t 1.1064 -s 0 -d 1 -p tcp -e 1040 -c 1 -i 15 -a 1 -x {0.0 2.0 -1 ------- null}
r -t 1.10808 -s 0 -d 1 -p tcp -e 1040 -c 1 -i 11 -a 1 -x {0.0 2.0 6 ------- null}
+ -t 1.10808 -s 1 -d 2 -p tcp -e 1040 -c 1 -i 11 -a 1 -x {0.0 2.0 6 ------- null}
- -t 1.10808 -s 1 -d 2 -p tcp -e 1040 -c 1 -i 11 -a 1 -x {0.0 2.0 6 ------- null}
h -t 1.10808 -s 1 -d 2 -p tcp -e 1040 -c 1 -i 11 -a 1 -x {0.0 2.0 -1 ------- null}
r -t 1.10872 -s 2 -d 1 -p ack -e 40 -c 1 -i 13 -a 1 -x {2.0 0.0 5 ------- null}
+ -t 1.10872 -s 1 -d 0 -p ack -e 40 -c 1 -i 13 -a 1 -x {2.0 0.0 5 ------- null}
- -t 1.10872 -s 1 -d 0 -p ack -e 40 -c 1 -i 13 -a 1 -x {2.0 0.0 5 ------- null}
h -t 1.10872 -s 1 -d 0 -p ack -e 40 -c 1 -i 13 -a 1 -x {2.0 0.0 -1 ------- null}
r -t 1.11056 -s 1 -d 0 -p ack -e 40 -c 1 -i 10 -a 1 -x {2.0 0.0 4 ------- null}
+ -t 1.11056 -s 0 -d 1 -p tcp -e 1040 -c 1 -i 16 -a 1 -x {0.0 2.0 10 ------- null}
- -t 1.11056 -s 0 -d 1 -p tcp -e 1040 -c 1 -i 16 -a 1 -x {0.0 2.0 10 ------- null}
h -t 1.11056 -s 0 -d 1 -p tcp -e 1040 -c 1 -i 16 -a 1 -x {0.0 2.0 -1 ------- null}
+ -t 1.11056 -s 0 -d 1 -p tcp -e 1040 -c 1 -i 17 -a 1 -x {0.0 2.0 11 ------- null}
r -t 1.11224 -s 0 -d 1 -p tcp -e 1040 -c 1 -i 12 -a 1 -x {0.0 2.0 7 ------- null}
+ -t 1.11224 -s 1 -d 2 -p tcp -e 1040 -c 1 -i 12 -a 1 -x {0.0 2.0 7 ------- null}
- -t 1.11472 -s 0 -d 1 -p tcp -e 1040 -c 1 -i 17 -a 1 -x {0.0 2.0 11 ------- null}
h -t 1.11472 -s 0 -d 1 -p tcp -e 1040 -c 1 -i 17 -a 1 -x {0.0 2.0 -1 ------- null}
r -t 1.1164 -s 0 -d 1 -p tcp -e 1040 -c 1 -i 14 -a 1 -x {0.0 2.0 8 ------- null}
+ -t 1.1164 -s 1 -d 2 -p tcp -e 1040 -c 1 -i 14 -a 1 -x {0.0 2.0 8 ------- null}
- -t 1.1164 -s 1 -d 2 -p tcp -e 1040 -c 1 -i 12 -a 1 -x {0.0 2.0 7 ------- null}
h -t 1.1164 -s 1 -d 2 -p tcp -e 1040 -c 1 -i 12 -a 1 -x {0.0 2.0 -1 ------- null}
r -t 1.11888 -s 1 -d 0 -p ack -e 40 -c 1 -i 13 -a 1 -x {2.0 0.0 5 ------- null}
+ -t 1.11888 -s 0 -d 1 -p tcp -e 1040 -c 1 -i 18 -a 1 -x {0.0 2.0 12 ------- null}
- -t 1.11888 -s 0 -d 1 -p tcp -e 1040 -c 1 -i 18 -a 1 -x {0.0 2.0 12 ------- null}
h -t 1.11888 -s 0 -d 1 -p tcp -e 1040 -c 1 -i 18 -a 1 -x {0.0 2.0 -1 ------- null}
+ -t 1.11888 -s 0 -d 1 -p tcp -e 1040 -c 1 -i 19 -a 1 -x {0.0 2.0 13 ------- null}
r -t 1.12056 -s 0 -d 1 -p tcp -e 1040 -c 1 -i 15 -a 1 -x {0.0 2.0 9 ------- null}
+ -t 1.12056 -s 1 -d 2 -p tcp -e 1040 -c 1 -i 15 -a 1 -x {0.0 2.0 9 ------- null}
- -t 1.12304 -s 0 -d 1 -p tcp -e 1040 -c 1 -i 19 -a 1 -x {0.0 2.0 13 ------- null}
h -t 1.12304 -s 0 -d 1 -p tcp -e 1040 -c 1 -i 19 -a 1 -x {0.0 2.0 -1 ------- null}
r -t 1.12472 -s 0 -d 1 -p tcp -e 1040 -c 1 -i 16 -a 1 -x {0.0 2.0 10 ------- null}
+ -t 1.12472 -s 1 -d 2 -p tcp -e 1040 -c 1 -i 16 -a 1 -x {0.0 2.0 10 ------- null}
- -t 1.12472 -s 1 -d 2 -p tcp -e 1040 -c 1 -i 14 -a 1 -x {0.0 2.0 8 ------- null}
h -t 1.12472 -s 1 -d 2 -p tcp -e 1040 -c 1 -i 14 -a 1 -x {0.0 2.0 -1 ------- null}
r -t 1.1264 -s 1 -d 2 -p tcp -e 1040 -c 1 -i 11 -a 1 -x {0.0 2.0 6 ------- null}
+ -t 1.1264 -s 2 -d 1 -p ack -e 40 -c 1 -i 20 -a 1 -x {2.0 0.0 6 ------- null}
- -t 1.1264 -s 2 -d 1 -p ack -e 40 -c 1 -i 20 -a 1 -x {2.0 0.0 6 ------- null}
h -t 1.1264 -s 2 -d 1 -p ack -e 40 -c 1 -i 20 -a 1 -x {2.0 0.0 -1 ------- null}
r -t 1.12888 -s 0 -d 1 -p tcp -e 1040 -c 1 -i 17 -a 1 -x {0.0 2.0 11 ------- null}
+ -t 1.12888 -s 1 -d 2 -p tcp -e 1040 -c 1 -i 17 -a 1 -x {0.0 2.0 11 ------- null}
r -t 1.13304 -s 0 -d 1 -p tcp -e 1040 -c 1 -i 18 -a 1 -x {0.0 2.0 12 ------- null}
+ -t 1.13304 -s 1 -d 2 -p tcp -e 1040 -c 1 -i 18 -a 1 -x {0.0 2.0 12 ------- null}
- -t 1.13304 -s 1 -d 2 -p tcp -e 1040 -c 1 -i 15 -a 1 -x {0.0 2.0 9 ------- null}
h -t 1.13304 -s 1 -d 2 -p tcp -e 1040 -c 1 -i 15 -a 1 -x {0.0 2.0 -1 ------- null}
r -t 1.13472 -s 1 -d 2 -p tcp -e 1040 -c 1 -i 12 -a 1 -x {0.0 2.0 7 ------- null}
+ -t 1.13472 -s 2 -d 1 -p ack -e 40 -c 1 -i 21 -a 1 -x {2.0 0.0 7 ------- null}
- -t 1.13472 -s 2 -d 1 -p ack -e 40 -c 1 -i 21 -a 1 -x {2.0 0.0 7 ------- null}
h -t 1.13472 -s 2 -d 1 -p ack -e 40 -c 1 -i 21 -a 1 -x {2.0 0.0 -1 ------- null}
r -t 1.13672 -s 2 -d 1 -p ack -e 40 -c 1 -i 20 -a 1 -x {2.0 0.0 6 ------- null}
+ -t 1.13672 -s 1 -d 0 -p ack -e 40 -c 1 -i 20 -a 1 -x {2.0 0.0 6 ------- null}
- -t 1.13672 -s 1 -d 0 -p ack -e 40 -c 1 -i 20 -a 1 -x {2.0 0.0 6 ------- null}
h -t 1.13672 -s 1 -d 0 -p ack -e 40 -c 1 -i 20 -a 1 -x {2.0 0.0 -1 ------- null}
r -t 1.1372 -s 0 -d 1 -p tcp -e 1040 -c 1 -i 19 -a 1 -x {0.0 2.0 13 ------- null}
+ -t 1.1372 -s 1 -d 2 -p tcp -e 1040 -c 1 -i 19 -a 1 -x {0.0 2.0 13 ------- null}
- -t 1.14136 -s 1 -d 2 -p tcp -e 1040 -c 1 -i 16 -a 1 -x {0.0 2.0 10 ------- null}
h -t 1.14136 -s 1 -d 2 -p tcp -e 1040 -c 1 -i 16 -a 1 -x {0.0 2.0 -1 ------- null}
r -t 1.14304 -s 1 -d 2 -p tcp -e 1040 -c 1 -i 14 -a 1 -x {0.0 2.0 8 ------- null}
+ -t 1.14304 -s 2 -d 1 -p ack -e 40 -c 1 -i 22 -a 1 -x {2.0 0.0 8 ------- null}
- -t 1.14304 -s 2 -d 1 -p ack -e 40 -c 1 -i 22 -a 1 -x {2.0 0.0 8 ------- null}
h -t 1.14304 -s 2 -d 1 -p ack -e 40 -c 1 -i 22 -a 1 -x {2.0 0.0 -1 ------- null}
r -t 1.14504 -s 2 -d 1 -p ack -e 40 -c 1 -i 21 -a 1 -x {2.0 0.0 7 ------- null}
+ -t 1.14504 -s 1 -d 0 -p ack -e 40 -c 1 -i 21 -a 1 -x {2.0 0.0 7 ------- null}
- -t 1.14504 -s 1 -d 0 -p ack -e 40 -c 1 -i 21 -a 1 -x {2.0 0.0 7 ------- null}
h -t 1.14504 -s 1 -d 0 -p ack -e 40 -c 1 -i 21 -a 1 -x {2.0 0.0 -1 ------- null}
r -t 1.14688 -s 1 -d 0 -p ack -e 40 -c 1 -i 20 -a 1 -x {2.0 0.0 6 ------- null}
+ -t 1.14688 -s 0 -d 1 -p tcp -e 1040 -c 1 -i 23 -a 1 -x {0.0 2.0 14 ------- null}
- -t 1.14688 -s 0 -d 1 -p tcp -e 1040 -c 1 -i 23 -a 1 -x {0.0 2.0 14 ------- null}
h -t 1.14688 -s 0 -d 1 -p tcp -e 1040 -c 1 -i 23 -a 1 -x {0.0 2.0 -1 ------- null}
+ -t 1.14688 -s 0 -d 1 -p tcp -e 1040 -c 1 -i 24 -a 1 -x {0.0 2.0 15 ------- null}
- -t 1.14968 -s 1 -d 2 -p tcp -e 1040 -c 1 -i 17 -a 1 -x {0.0 2.0 11 ------- null}
h -t 1.14968 -s 1 -d 2 -p tcp -e 1040 -c 1 -i 17 -a 1 -x {0.0 2.0 -1 ------- null}
- -t 1.15104 -s 0 -d 1 -p tcp -e 1040 -c 1 -i 24 -a 1 -x {0.0 2.0 15 ------- null}
h -t 1.15104 -s 0 -d 1 -p tcp -e 1040 -c 1 -i 24 -a 1 -x {0.0 2.0 -1 ------- null}
r -t 1.15136 -s 1 -d 2 -p tcp -e 1040 -c 1 -i 15 -a 1 -x {0.0 2.0 9 ------- null}
+ -t 1.15136 -s 2 -d 1 -p ack -e 40 -c 1 -i 25 -a 1 -x {2.0 0.0 9 ------- null}
- -t 1.15136 -s 2 -d 1 -p ack -e 40 -c 1 -i 25 -a 1 -x {2.0 0.0 9 ------- null}
h -t 1.15136 -s 2 -d 1 -p ack -e 40 -c 1 -i 25 -a 1 -x {2.0 0.0 -1 ------- null}
r -t 1.15336 -s 2 -d 1 -p ack -e 40 -c 1 -i 22 -a 1 -x {2.0 0.0 8 ------- null}
+ -t 1.15336 -s 1 -d 0 -p ack -e 40 -c 1 -i 22 -a 1 -x {2.0 0.0 8 ------- null}
- -t 1.15336 -s 1 -d 0 -p ack -e 40 -c 1 -i 22 -a 1 -x {2.0 0.0 8 ------- null}
h -t 1.15336 -s 1 -d 0 -p ack -e 40 -c 1 -i 22 -a 1 -x {2.0 0.0 -1 ------- null}
r -t 1.1552 -s 1 -d 0 -p ack -e 40 -c 1 -i 21 -a 1 -x {2.0 0.0 7 ------- null}
+ -t 1.1552 -s 0 -d 1 -p tcp -e 1040 -c 1 -i 26 -a 1 -x {0.0 2.0 16 ------- null}
- -t 1.1552 -s 0 -d 1 -p tcp -e 1040 -c 1 -i 26 -a 1 -x {0.0 2.0 16 ------- null}
h -t 1.1552 -s 0 -d 1 -p tcp -e 1040 -c 1 -i 26 -a 1 -x {0.0 2.0 -1 ------- null}
+ -t 1.1552 -s 0 -d 1 -p tcp -e 1040 -c 1 -i 27 -a 1 -x {0.0 2.0 17 ------- null}
- -t 1.158 -s 1 -d 2 -p tcp -e 1040 -c 1 -i 18 -a 1 -x {0.0 2.0 12 ------- null}
h -t 1.158 -s 1 -d 2 -p tcp -e 1040 -c 1 -i 18 -a 1 -x {0.0 2.0 -1 ------- null}
- -t 1.15936 -s 0 -d 1 -p tcp -e 1040 -c 1 -i 27 -a 1 -x {0.0 2.0 17 ------- null}
h -t 1.15936 -s 0 -d 1 -p tcp -e 1040 -c 1 -i 27 -a 1 -x {0.0 2.0 -1 ------- null}
r -t 1.15968 -s 1 -d 2 -p tcp -e 1040 -c 1 -i 16 -a 1 -x {0.0 2.0 10 ------- null}
+ -t 1.15968 -s 2 -d 1 -p ack -e 40 -c 1 -i 28 -a 1 -x {2.0 0.0 10 ------- null}
- -t 1.15968 -s 2 -d 1 -p ack -e 40 -c 1 -i 28 -a 1 -x {2.0 0.0 10 ------- null}
h -t 1.15968 -s 2 -d 1 -p ack -e 40 -c 1 -i 28 -a 1 -x {2.0 0.0 -1 ------- null}
r -t 1.16104 -s 0 -d 1 -p tcp -e 1040 -c 1 -i 23 -a 1 -x {0.0 2.0 14 ------- null}
+ -t 1.16104 -s 1 -d 2 -p tcp -e 1040 -c 1 -i 23 -a 1 -x {0.0 2.0 14 ------- null}
r -t 1.16168 -s 2 -d 1 -p ack -e 40 -c 1 -i 25 -a 1 -x {2.0 0.0 9 ------- null}
+ -t 1.16168 -s 1 -d 0 -p ack -e 40 -c 1 -i 25 -a 1 -x {2.0 0.0 9 ------- null}
- -t 1.16168 -s 1 -d 0 -p ack -e 40 -c 1 -i 25 -a 1 -x {2.0 0.0 9 ------- null}
h -t 1.16168 -s 1 -d 0 -p ack -e 40 -c 1 -i 25 -a 1 -x {2.0 0.0 -1 ------- null}
r -t 1.16352 -s 1 -d 0 -p ack -e 40 -c 1 -i 22 -a 1 -x {2.0 0.0 8 ------- null}
+ -t 1.16352 -s 0 -d 1 -p tcp -e 1040 -c 1 -i 29 -a 1 -x {0.0 2.0 18 ------- null}
- -t 1.16352 -s 0 -d 1 -p tcp -e 1040 -c 1 -i 29 -a 1 -x {0.0 2.0 18 ------- null}
h -t 1.16352 -s 0 -d 1 -p tcp -e 1040 -c 1 -i 29 -a 1 -x {0.0 2.0 -1 ------- null}
+ -t 1.16352 -s 0 -d 1 -p tcp -e 1040 -c 1 -i 30 -a 1 -x {0.0 2.0 19 ------- null}
r -t 1.1652 -s 0 -d 1 -p tcp -e 1040 -c 1 -i 24 -a 1 -x {0.0 2.0 15 ------- null}
+ -t 1.1652 -s 1 -d 2 -p tcp -e 1040 -c 1 -i 24 -a 1 -x {0.0 2.0 15 ------- null}
- -t 1.16632 -s 1 -d 2 -p tcp -e 1040 -c 1 -i 19 -a 1 -x {0.0 2.0 13 ------- null}
h -t 1.16632 -s 1 -d 2 -p tcp -e 1040 -c 1 -i 19 -a 1 -x {0.0 2.0 -1 ------- null}
- -t 1.16768 -s 0 -d 1 -p tcp -e 1040 -c 1 -i 30 -a 1 -x {0.0 2.0 19 ------- null}
h -t 1.16768 -s 0 -d 1 -p tcp -e 1040 -c 1 -i 30 -a 1 -x {0.0 2.0 -1 ------- null}
r -t 1.168 -s 1 -d 2 -p tcp -e 1040 -c 1 -i 17 -a 1 -x {0.0 2.0 11 ------- null}
+ -t 1.168 -s 2 -d 1 -p ack -e 40 -c 1 -i 31 -a 1 -x {2.0 0.0 11 ------- null}
- -t 1.168 -s 2 -d 1 -p ack -e 40 -c 1 -i 31 -a 1 -x {2.0 0.0 11 ------- null}
h -t 1.168 -s 2 -d 1 -p ack -e 40 -c 1 -i 31 -a 1 -x {2.0 0.0 -1 ------- null}
r -t 1.16936 -s 0 -d 1 -p tcp -e 1040 -c 1 -i 26 -a 1 -x {0.0 2.0 16 ------- null}
+ -t 1.16936 -s 1 -d 2 -p tcp -e 1040 -c 1 -i 26 -a 1 -x {0.0 2.0 16 ------- null}
r -t 1.17 -s 2 -d 1 -p ack -e 40 -c 1 -i 28 -a 1 -x {2.0 0.0 10 ------- null}
+ -t 1.17 -s 1 -d 0 -p ack -e 40 -c 1 -i 28 -a 1 -x {2.0 0.0 10 ------- null}
- -t 1.17 -s 1 -d 0 -p ack -e 40 -c 1 -i 28 -a 1 -x {2.0 0.0 10 ------- null}
h -t 1.17 -s 1 -d 0 -p ack -e 40 -c 1 -i 28 -a 1 -x {2.0 0.0 -1 ------- null}
r -t 1.17184 -s 1 -d 0 -p ack -e 40 -c 1 -i 25 -a 1 -x {2.0 0.0 9 ------- null}
+ -t 1.17184 -s 0 -d 1 -p tcp -e 1040 -c 1 -i 32 -a 1 -x {0.0 2.0 20 ------- null}
- -t 1.17184 -s 0 -d 1 -p tcp -e 1040 -c 1 -i 32 -a 1 -x {0.0 2.0 20 ------- null}
h -t 1.17184 -s 0 -d 1 -p tcp -e 1040 -c 1 -i 32 -a 1 -x {0.0 2.0 -1 ------- null}
+ -t 1.17184 -s 0 -d 1 -p tcp -e 1040 -c 1 -i 33 -a 1 -x {0.0 2.0 21 ------- null}
r -t 1.17352 -s 0 -d 1 -p tcp -e 1040 -c 1 -i 27 -a 1 -x {0.0 2.0 17 ------- null}
+ -t 1.17352 -s 1 -d 2 -p tcp -e 1040 -c 1 -i 27 -a 1 -x {0.0 2.0 17 ------- null}
- -t 1.17464 -s 1 -d 2 -p tcp -e 1040 -c 1 -i 23 -a 1 -x {0.0 2.0 14 ------- null}
h -t 1.17464 -s 1 -d 2 -p tcp -e 1040 -c 1 -i 23 -a 1 -x {0.0 2.0 -1 ------- null}
- -t 1.176 -s 0 -d 1 -p tcp -e 1040 -c 1 -i 33 -a 1 -x {0.0 2.0 21 ------- null}
h -t 1.176 -s 0 -d 1 -p tcp -e 1040 -c 1 -i 33 -a 1 -x {0.0 2.0 -1 ------- null}
r -t 1.17632 -s 1 -d 2 -p tcp -e 1040 -c 1 -i 18 -a 1 -x {0.0 2.0 12 ------- null}
+ -t 1.17632 -s 2 -d 1 -p ack -e 40 -c 1 -i 34 -a 1 -x {2.0 0.0 12 ------- null}
- -t 1.17632 -s 2 -d 1 -p ack -e 40 -c 1 -i 34 -a 1 -x {2.0 0.0 12 ------- null}
h -t 1.17632 -s 2 -d 1 -p ack -e 40 -c 1 -i 34 -a 1 -x {2.0 0.0 -1 ------- null}
r -t 1.17768 -s 0 -d 1 -p tcp -e 1040 -c 1 -i 29 -a 1 -x {0.0 2.0 18 ------- null}
+ -t 1.17768 -s 1 -d 2 -p tcp -e 1040 -c 1 -i 29 -a 1 -x {0.0 2.0 18 ------- null}
r -t 1.17832 -s 2 -d 1 -p ack -e 40 -c 1 -i 31 -a 1 -x {2.0 0.0 11 ------- null}
+ -t 1.17832 -s 1 -d 0 -p ack -e 40 -c 1 -i 31 -a 1 -x {2.0 0.0 11 ------- null}
- -t 1.17832 -s 1 -d 0 -p ack -e 40 -c 1 -i 31 -a 1 -x {2.0 0.0 11 ------- null}
h -t 1.17832 -s 1 -d 0 -p ack -e 40 -c 1 -i 31 -a 1 -x {2.0 0.0 -1 ------- null}
r -t 1.18016 -s 1 -d 0 -p ack -e 40 -c 1 -i 28 -a 1 -x {2.0 0.0 10 ------- null}
+ -t 1.18016 -s 0 -d 1 -p tcp -e 1040 -c 1 -i 35 -a 1 -x {0.0 2.0 22 ------- null}
- -t 1.18016 -s 0 -d 1 -p tcp -e 1040 -c 1 -i 35 -a 1 -x {0.0 2.0 22 ------- null}
h -t 1.18016 -s 0 -d 1 -p tcp -e 1040 -c 1 -i 35 -a 1 -x {0.0 2.0 -1 ------- null}
+ -t 1.18016 -s 0 -d 1 -p tcp -e 1040 -c 1 -i 36 -a 1 -x {0.0 2.0 23 ------- null}
r -t 1.18184 -s 0 -d 1 -p tcp -e 1040 -c 1 -i 30 -a 1 -x {0.0 2.0 19 ------- null}
+ -t 1.18184 -s 1 -d 2 -p tcp -e 1040 -c 1 -i 30 -a 1 -x {0.0 2.0 19 ------- null}
d -t 1.18184 -s 1 -d 2 -p tcp -e 1040 -c 1 -i 30 -a 1 -x {0.0 2.0 19 ------- null}
- -t 1.18296 -s 1 -d 2 -p tcp -e 1040 -c 1 -i 24 -a 1 -x {0.0 2.0 15 ------- null}
h -t 1.18296 -s 1 -d 2 -p tcp -e 1040 -c 1 -i 24 -a 1 -x {0.0 2.0 -1 ------- null}
- -t 1.18432 -s 0 -d 1 -p tcp -e 1040 -c 1 -i 36 -a 1 -x {0.0 2.0 23 ------- null}
h -t 1.18432 -s 0 -d 1 -p tcp -e 1040 -c 1 -i 36 -a 1 -x {0.0 2.0 -1 ------- null}
r -t 1.18464 -s 1 -d 2 -p tcp -e 1040 -c 1 -i 19 -a 1 -x {0.0 2.0 13 ------- null}
+ -t 1.18464 -s 2 -d 1 -p ack -e 40 -c 1 -i 37 -a 1 -x {2.0 0.0 13 ------- null}
- -t 1.18464 -s 2 -d 1 -p ack -e 40 -c 1 -i 37 -a 1 -x {2.0 0.0 13 ------- null}
h -t 1.18464 -s 2 -d 1 -p ack -e 40 -c 1 -i 37 -a 1 -x {2.0 0.0 -1 ------- null}
r -t 1.186 -s 0 -d 1 -p tcp -e 1040 -c 1 -i 32 -a 1 -x {0.0 2.0 20 ------- null}
+ -t 1.186 -s 1 -d 2 -p tcp -e 1040 -c 1 -i 32 -a 1 -x {0.0 2.0 20 ------- null}
r -t 1.18664 -s 2 -d 1 -p ack -e 40 -c 1 -i 34 -a 1 -x {2.0 0.0 12 ------- null}
+ -t 1.18664 -s 1 -d 0 -p ack -e 40 -c 1 -i 34 -a 1 -x {2.0 0.0 12 ------- null}
- -t 1.18664 -s 1 -d 0 -p ack -e 40 -c 1 -i 34 -a 1 -x {2.0 0.0 12 ------- null}
h -t 1.18664 -s 1 -d 0 -p ack -e 40 -c 1 -i 34 -a 1 -x {2.0 0.0 -1 ------- null}
r -t 1.18848 -s 1 -d 0 -p ack -e 40 -c 1 -i 31 -a 1 -x {2.0 0.0 11 ------- null}
+ -t 1.18848 -s 0 -d 1 -p tcp -e 1040 -c 1 -i 38 -a 1 -x {0.0 2.0 24 ------- null}
- -t 1.18848 -s 0 -d 1 -p tcp -e 1040 -c 1 -i 38 -a 1 -x {0.0 2.0 24 ------- null}
h -t 1.18848 -s 0 -d 1 -p tcp -e 1040 -c 1 -i 38 -a 1 -x {0.0 2.0 -1 ------- null}
+ -t 1.18848 -s 0 -d 1 -p tcp -e 1040 -c 1 -i 39 -a 1 -x {0.0 2.0 25 ------- null}
r -t 1.19016 -s 0 -d 1 -p tcp -e 1040 -c 1 -i 33 -a 1 -x {0.0 2.0 21 ------- null}
+ -t 1.19016 -s 1 -d 2 -p tcp -e 1040 -c 1 -i 33 -a 1 -x {0.0 2.0 21 ------- null}
d -t 1.19016 -s 1 -d 2 -p tcp -e 1040 -c 1 -i 33 -a 1 -x {0.0 2.0 21 ------- null}
- -t 1.19128 -s 1 -d 2 -p tcp -e 1040 -c 1 -i 26 -a 1 -x {0.0 2.0 16 ------- null}
h -t 1.19128 -s 1 -d 2 -p tcp -e 1040 -c 1 -i 26 -a 1 -x {0.0 2.0 -1 ------- null}
- -t 1.19264 -s 0 -d 1 -p tcp -e 1040 -c 1 -i 39 -a 1 -x {0.0 2.0 25 ------- null}
h -t 1.19264 -s 0 -d 1 -p tcp -e 1040 -c 1 -i 39 -a 1 -x {0.0 2.0 -1 ------- null}
r -t 1.19296 -s 1 -d 2 -p tcp -e 1040 -c 1 -i 23 -a 1 -x {0.0 2.0 14 ------- null}
+ -t 1.19296 -s 2 -d 1 -p ack -e 40 -c 1 -i 40 -a 1 -x {2.0 0.0 14 ------- null}
- -t 1.19296 -s 2 -d 1 -p ack -e 40 -c 1 -i 40 -a 1 -x {2.0 0.0 14 ------- null}
h -t 1.19296 -s 2 -d 1 -p ack -e 40 -c 1 -i 40 -a 1 -x {2.0 0.0 -1 ------- null}
r -t 1.19432 -s 0 -d 1 -p tcp -e 1040 -c 1 -i 35 -a 1 -x {0.0 2.0 22 ------- null}
+ -t 1.19432 -s 1 -d 2 -p tcp -e 1040 -c 1 -i 35 -a 1 -x {0.0 2.0 22 ------- null}
r -t 1.19496 -s 2 -d 1 -p ack -e 40 -c 1 -i 37 -a 1 -x {2.0 0.0 13 ------- null}
+ -t 1.19496 -s 1 -d 0 -p ack -e 40 -c 1 -i 37 -a 1 -x {2.0 0.0 13 ------- null}
- -t 1.19496 -s 1 -d 0 -p ack -e 40 -c 1 -i 37 -a 1 -x {2.0 0.0 13 ------- null}
h -t 1.19496 -s 1 -d 0 -p ack -e 40 -c 1 -i 37 -a 1 -x {2.0 0.0 -1 ------- null}
r -t 1.1968 -s 1 -d 0 -p ack -e 40 -c 1 -i 34 -a 1 -x {2.0 0.0 12 ------- null}
+ -t 1.1968 -s 0 -d 1 -p tcp -e 1040 -c 1 -i 41 -a 1 -x {0.0 2.0 26 ------- null}
- -t 1.1968 -s 0 -d 1 -p tcp -e 1040 -c 1 -i 41 -a 1 -x {0.0 2.0 26 ------- null}
h -t 1.1968 -s 0 -d 1 -p tcp -e 1040 -c 1 -i 41 -a 1 -x {0.0 2.0 -1 ------- null}
+ -t 1.1968 -s 0 -d 1 -p tcp -e 1040 -c 1 -i 42 -a 1 -x {0.0 2.0 27 ------- null}
r -t 1.19848 -s 0 -d 1 -p tcp -e 1040 -c 1 -i 36 -a 1 -x {0.0 2.0 23 ------- null}
+ -t 1.19848 -s 1 -d 2 -p tcp -e 1040 -c 1 -i 36 -a 1 -x {0.0 2.0 23 ------- null}
d -t 1.19848 -s 1 -d 2 -p tcp -e 1040 -c 1 -i 36 -a 1 -x {0.0 2.0 23 ------- null}
- -t 1.1996 -s 1 -d 2 -p tcp -e 1040 -c 1 -i 27 -a 1 -x {0.0 2.0 17 ------- null}
h -t 1.1996 -s 1 -d 2 -p tcp -e 1040 -c 1 -i 27 -a 1 -x {0.0 2.0 -1 ------- null}
- -t 1.20096 -s 0 -d 1 -p tcp -e 1040 -c 1 -i 42 -a 1 -x {0.0 2.0 27 ------- null}
h -t 1.20096 -s 0 -d 1 -p tcp -e 1040 -c 1 -i 42 -a 1 -x {0.0 2.0 -1 ------- null}
r -t 1.20128 -s 1 -d 2 -p tcp -e 1040 -c 1 -i 24 -a 1 -x {0.0 2.0 15 ------- null}
+ -t 1.20128 -s 2 -d 1 -p ack -e 40 -c 1 -i 43 -a 1 -x {2.0 0.0 15 ------- null}
- -t 1.20128 -s 2 -d 1 -p ack -e 40 -c 1 -i 43 -a 1 -x {2.0 0.0 15 ------- null}
h -t 1.20128 -s 2 -d 1 -p ack -e 40 -c 1 -i 43 -a 1 -x {2.0 0.0 -1 ------- null}
r -t 1.20264 -s 0 -d 1 -p tcp -e 1040 -c 1 -i 38 -a 1 -x {0.0 2.0 24 ------- null}
+ -t 1.20264 -s 1 -d 2 -p tcp -e 1040 -c 1 -i 38 -a 1 -x {0.0 2.0 24 ------- null}
r -t 1.20328 -s 2 -d 1 -p ack -e 40 -c 1 -i 40 -a 1 -x {2.0 0.0 14 ------- null}
+ -t 1.20328 -s 1 -d 0 -p ack -e 40 -c 1 -i 40 -a 1 -x {2.0 0.0 14 ------- null}
- -t 1.20328 -s 1 -d 0 -p ack -e 40 -c 1 -i 40 -a 1 -x {2.0 0.0 14 ------- null}
h -t 1.20328 -s 1 -d 0 -p ack -e 40 -c 1 -i 40 -a 1 -x {2.0 0.0 -1 ------- null}
r -t 1.20512 -s 1 -d 0 -p ack -e 40 -c 1 -i 37 -a 1 -x {2.0 0.0 13 ------- null}
+ -t 1.20512 -s 0 -d 1 -p tcp -e 1040 -c 1 -i 44 -a 1 -x {0.0 2.0 28 ------- null}
- -t 1.20512 -s 0 -d 1 -p tcp -e 1040 -c 1 -i 44 -a 1 -x {0.0 2.0 28 ------- null}
h -t 1.20512 -s 0 -d 1 -p tcp -e 1040 -c 1 -i 44 -a 1 -x {0.0 2.0 -1 ------- null}
+ -t 1.20512 -s 0 -d 1 -p tcp -e 1040 -c 1 -i 45 -a 1 -x {0.0 2.0 29 ------- null}
r -t 1.2068 -s 0 -d 1 -p tcp -e 1040 -c 1 -i 39 -a 1 -x {0.0 2.0 25 ------- null}
+ -t 1.2068 -s 1 -d 2 -p tcp -e 1040 -c 1 -i 39 -a 1 -x {0.0 2.0 25 ------- null}
d -t 1.2068 -s 1 -d 2 -p tcp -e 1040 -c 1 -i 39 -a 1 -x {0.0 2.0 25 ------- null}
- -t 1.20792 -s 1 -d 2 -p tcp -e 1040 -c 1 -i 29 -a 1 -x {0.0 2.0 18 ------- null}
h -t 1.20792 -s 1 -d 2 -p tcp -e 1040 -c 1 -i 29 -a 1 -x {0.0 2.0 -1 ------- null}
- -t 1.20928 -s 0 -d 1 -p tcp -e 1040 -c 1 -i 45 -a 1 -x {0.0 2.0 29 ------- null}
h -t 1.20928 -s 0 -d 1 -p tcp -e 1040 -c 1 -i 45 -a 1 -x {0.0 2.0 -1 ------- null}
r -t 1.2096 -s 1 -d 2 -p tcp -e 1040 -c 1 -i 26 -a 1 -x {0.0 2.0 16 ------- null}
+ -t 1.2096 -s 2 -d 1 -p ack -e 40 -c 1 -i 46 -a 1 -x {2.0 0.0 16 ------- null}
- -t 1.2096 -s 2 -d 1 -p ack -e 40 -c 1 -i 46 -a 1 -x {2.0 0.0 16 ------- null}
h -t 1.2096 -s 2 -d 1 -p ack -e 40 -c 1 -i 46 -a 1 -x {2.0 0.0 -1 ------- null}
r -t 1.21096 -s 0 -d 1 -p tcp -e 1040 -c 1 -i 41 -a 1 -x {0.0 2.0 26 ------- null}
+ -t 1.21096 -s 1 -d 2 -p tcp -e 1040 -c 1 -i 41 -a 1 -x {0.0 2.0 26 ------- null}
r -t 1.2116 -s 2 -d 1 -p ack -e 40 -c 1 -i 43 -a 1 -x {2.0 0.0 15 ------- null}
+ -t 1.2116 -s 1 -d 0 -p ack -e 40 -c 1 -i 43 -a 1 -x {2.0 0.0 15 ------- null}
- -t 1.2116 -s 1 -d 0 -p ack -e 40 -c 1 -i 43 -a 1 -x {2.0 0.0 15 ------- null}
h -t 1.2116 -s 1 -d 0 -p ack -e 40 -c 1 -i 43 -a 1 -x {2.0 0.0 -1 ------- null}
r -t 1.21344 -s 1 -d 0 -p ack -e 40 -c 1 -i 40 -a 1 -x {2.0 0.0 14 ------- null}
+ -t 1.21344 -s 0 -d 1 -p tcp -e 1040 -c 1 -i 47 -a 1 -x {0.0 2.0 30 ------- null}
- -t 1.21344 -s 0 -d 1 -p tcp -e 1040 -c 1 -i 47 -a 1 -x {0.0 2.0 30 ------- null}
h -t 1.21344 -s 0 -d 1 -p tcp -e 1040 -c 1 -i 47 -a 1 -x {0.0 2.0 -1 ------- null}
+ -t 1.21344 -s 0 -d 1 -p tcp -e 1040 -c 1 -i 48 -a 1 -x {0.0 2.0 31 ------- null}
r -t 1.21512 -s 0 -d 1 -p tcp -e 1040 -c 1 -i 42 -a 1 -x {0.0 2.0 27 ------- null}
+ -t 1.21512 -s 1 -d 2 -p tcp -e 1040 -c 1 -i 42 -a 1 -x {0.0 2.0 27 ------- null}
d -t 1.21512 -s 1 -d 2 -p tcp -e 1040 -c 1 -i 42 -a 1 -x {0.0 2.0 27 ------- null}
- -t 1.21624 -s 1 -d 2 -p tcp -e 1040 -c 1 -i 32 -a 1 -x {0.0 2.0 20 ------- null}
h -t 1.21624 -s 1 -d 2 -p tcp -e 1040 -c 1 -i 32 -a 1 -x {0.0 2.0 -1 ------- null}
- -t 1.2176 -s 0 -d 1 -p tcp -e 1040 -c 1 -i 48 -a 1 -x {0.0 2.0 31 ------- null}
h -t 1.2176 -s 0 -d 1 -p tcp -e 1040 -c 1 -i 48 -a 1 -x {0.0 2.0 -1 ------- null}
r -t 1.21792 -s 1 -d 2 -p tcp -e 1040 -c 1 -i 27 -a 1 -x {0.0 2.0 17 ------- null}
+ -t 1.21792 -s 2 -d 1 -p ack -e 40 -c 1 -i 49 -a 1 -x {2.0 0.0 17 ------- null}
- -t 1.21792 -s 2 -d 1 -p ack -e 40 -c 1 -i 49 -a 1 -x {2.0 0.0 17 ------- null}
h -t 1.21792 -s 2 -d 1 -p ack -e 40 -c 1 -i 49 -a 1 -x {2.0 0.0 -1 ------- null}
r -t 1.21928 -s 0 -d 1 -p tcp -e 1040 -c 1 -i 44 -a 1 -x {0.0 2.0 28 ------- null}
+ -t 1.21928 -s 1 -d 2 -p tcp -e 1040 -c 1 -i 44 -a 1 -x {0.0 2.0 28 ------- null}
r -t 1.21992 -s 2 -d 1 -p ack -e 40 -c 1 -i 46 -a 1 -x {2.0 0.0 16 ------- null}
+ -t 1.21992 -s 1 -d 0 -p ack -e 40 -c 1 -i 46 -a 1 -x {2.0 0.0 16 ------- null}
- -t 1.21992 -s 1 -d 0 -p ack -e 40 -c 1 -i 46 -a 1 -x {2.0 0.0 16 ------- null}
h -t 1.21992 -s 1 -d 0 -p ack -e 40 -c 1 -i 46 -a 1 -x {2.0 0.0 -1 ------- null}
r -t 1.22176 -s 1 -d 0 -p ack -e 40 -c 1 -i 43 -a 1 -x {2.0 0.0 15 ------- null}
+ -t 1.22176 -s 0 -d 1 -p tcp -e 1040 -c 1 -i 50 -a 1 -x {0.0 2.0 32 ------- null}
- -t 1.22176 -s 0 -d 1 -p tcp -e 1040 -c 1 -i 50 -a 1 -x {0.0 2.0 32 ------- null}
h -t 1.22176 -s 0 -d 1 -p tcp -e 1040 -c 1 -i 50 -a 1 -x {0.0 2.0 -1 ------- null}
+ -t 1.22176 -s 0 -d 1 -p tcp -e 1040 -c 1 -i 51 -a 1 -x {0.0 2.0 33 ------- null}
r -t 1.22344 -s 0 -d 1 -p tcp -e 1040 -c 1 -i 45 -a 1 -x {0.0 2.0 29 ------- null}
+ -t 1.22344 -s 1 -d 2 -p tcp -e 1040 -c 1 -i 45 -a 1 -x {0.0 2.0 29 ------- null}
d -t 1.22344 -s 1 -d 2 -p tcp -e 1040 -c 1 -i 45 -a 1 -x {0.0 2.0 29 ------- null}
- -t 1.22456 -s 1 -d 2 -p tcp -e 1040 -c 1 -i 35 -a 1 -x {0.0 2.0 22 ------- null}
h -t 1.22456 -s 1 -d 2 -p tcp -e 1040 -c 1 -i 35 -a 1 -x {0.0 2.0 -1 ------- null}